# LAMMPS data file written by OVITO Basic 3.5.4
16656 atoms
4 atom types
0.0 79.029 xlo xhi
0.0 79.029 ylo yhi
0.0 79.029 zlo zhi
0.00000 0.00000 0.0000 xy xz yz

Masses

1 12.0107  # C
2 63.546  # Cu
3 1.00794  # H
4 15.9994  # O

Atoms  # charge

1 1 0.0 8.48218257 4.68879057 23.36571414
2 1 0.0 17.86134429 21.653946 23.36571414
3 1 0.0 17.86134429 4.68879057 2.97702243
4 1 0.0 8.48218257 21.653946 2.97702243
5 1 0.0 23.36571414 8.48218257 4.68879057
6 1 0.0 23.36571414 17.86134429 21.653946
7 1 0.0 2.97702243 17.86134429 4.68879057
8 1 0.0 2.97702243 8.48218257 21.653946
9 1 0.0 4.68879057 23.36571414 8.48218257
10 1 0.0 21.653946 23.36571414 17.86134429
11 1 0.0 4.68879057 2.97702243 17.86134429
12 1 0.0 21.653946 2.97702243 8.48218257
13 1 0.0 4.68879057 8.48218257 2.97702243
14 1 0.0 21.653946 17.86134429 2.97702243
15 1 0.0 4.68879057 17.86134429 23.36571414
16 1 0.0 8.48218257 23.36571414 21.653946
17 1 0.0 17.86134429 23.36571414 4.68879057
18 1 0.0 17.86134429 2.97702243 21.653946
19 1 0.0 8.48218257 2.97702243 4.68879057
20 1 0.0 23.36571414 4.68879057 17.86134429
21 1 0.0 23.36571414 21.653946 8.48218257
22 1 0.0 2.97702243 4.68879057 8.48218257
23 1 0.0 2.97702243 21.653946 17.86134429
24 1 0.0 17.86134429 21.653946 2.97702243
25 1 0.0 8.48218257 4.68879057 2.97702243
26 1 0.0 8.48218257 21.653946 23.36571414
27 1 0.0 17.86134429 4.68879057 23.36571414
28 1 0.0 2.97702243 17.86134429 21.653946
29 1 0.0 2.97702243 8.48218257 4.68879057
30 1 0.0 23.36571414 17.86134429 4.68879057
31 1 0.0 21.653946 2.97702243 17.86134429
32 1 0.0 4.68879057 2.97702243 8.48218257
33 1 0.0 21.653946 23.36571414 8.48218257
34 1 0.0 4.68879057 23.36571414 17.86134429
35 1 0.0 21.653946 17.86134429 23.36571414
36 1 0.0 4.68879057 8.48218257 23.36571414
37 1 0.0 21.653946 8.48218257 2.97702243
38 1 0.0 4.68879057 17.86134429 2.97702243
39 1 0.0 17.86134429 2.97702243 4.68879057
40 1 0.0 8.48218257 2.97702243 21.653946
41 1 0.0 8.48218257 23.36571414 4.68879057
42 1 0.0 17.86134429 23.36571414 21.653946
43 1 0.0 2.97702243 21.653946 8.48218257
44 1 0.0 2.97702243 4.68879057 17.86134429
45 1 0.0 23.36571414 21.653946 17.86134429
46 1 0.0 23.36571414 4.68879057 8.48218257
47 1 0.0 8.48218257 17.86134429 10.194741
48 1 0.0 17.86134429 8.48218257 10.194741
49 1 0.0 17.86134429 17.86134429 16.14799557
50 1 0.0 8.48218257 8.48218257 16.14799557
51 1 0.0 4.68879057 10.194741 21.653946
52 1 0.0 21.653946 10.194741 4.68879057
53 1 0.0 4.68879057 16.14799557 4.68879057
54 1 0.0 21.653946 16.14799557 21.653946
55 1 0.0 4.68879057 21.653946 16.14799557
56 1 0.0 21.653946 4.68879057 16.14799557
57 1 0.0 4.68879057 4.68879057 10.194741
58 1 0.0 21.653946 21.653946 10.194741
59 1 0.0 8.48218257 10.194741 8.48218257
60 1 0.0 17.86134429 10.194741 17.86134429
61 1 0.0 17.86134429 16.14799557 8.48218257
62 1 0.0 8.48218257 16.14799557 17.86134429
63 1 0.0 17.86134429 8.48218257 16.14799557
64 1 0.0 8.48218257 17.86134429 16.14799557
65 1 0.0 8.48218257 8.48218257 10.194741
66 1 0.0 17.86134429 17.86134429 10.194741
67 1 0.0 21.653946 16.14799557 4.68879057
68 1 0.0 4.68879057 16.14799557 21.653946
69 1 0.0 4.68879057 10.194741 4.68879057
70 1 0.0 21.653946 4.68879057 10.194741
71 1 0.0 4.68879057 21.653946 10.194741
72 1 0.0 21.653946 21.653946 16.14799557
73 1 0.0 4.68879057 4.68879057 16.14799557
74 1 0.0 17.86134429 16.14799557 17.86134429
75 1 0.0 8.48218257 16.14799557 8.48218257
76 1 0.0 8.48218257 10.194741 17.86134429
77 1 0.0 17.86134429 10.194741 8.48218257
78 1 0.0 10.194741 8.48218257 17.86134429
79 1 0.0 10.194741 17.86134429 8.48218257
80 1 0.0 16.14799557 17.86134429 17.86134429
81 1 0.0 16.14799557 8.48218257 8.48218257
82 1 0.0 10.194741 4.68879057 4.68879057
83 1 0.0 10.194741 21.653946 21.653946
84 1 0.0 16.14799557 4.68879057 21.653946
85 1 0.0 16.14799557 21.653946 4.68879057
86 1 0.0 16.14799557 17.86134429 8.48218257
87 1 0.0 16.14799557 8.48218257 17.86134429
88 1 0.0 10.194741 8.48218257 8.48218257
89 1 0.0 10.194741 17.86134429 17.86134429
90 1 0.0 16.14799557 21.653946 21.653946
91 1 0.0 16.14799557 4.68879057 4.68879057
92 1 0.0 10.194741 21.653946 4.68879057
93 1 0.0 10.194741 4.68879057 21.653946
94 1 0.0 7.81912926 5.35263417 24.53297247
95 1 0.0 18.5243976 20.9901024 24.53297247
96 1 0.0 18.5243976 5.35263417 1.8097641
97 1 0.0 7.81912926 20.9901024 1.8097641
98 1 0.0 24.53297247 7.81912926 5.35263417
99 1 0.0 24.53297247 18.5243976 20.9901024
100 1 0.0 1.8097641 18.5243976 5.35263417
101 1 0.0 1.8097641 7.81912926 20.9901024
102 1 0.0 5.35263417 24.53297247 7.81912926
103 1 0.0 20.9901024 24.53297247 18.5243976
104 1 0.0 5.35263417 1.8097641 18.5243976
105 1 0.0 20.9901024 1.8097641 7.81912926
106 1 0.0 5.35263417 7.81912926 1.8097641
107 1 0.0 20.9901024 18.5243976 1.8097641
108 1 0.0 5.35263417 18.5243976 24.53297247
109 1 0.0 20.9901024 7.81912926 24.53297247
110 1 0.0 7.81912926 24.53297247 20.9901024
111 1 0.0 18.5243976 24.53297247 5.35263417
112 1 0.0 18.5243976 1.8097641 20.9901024
113 1 0.0 7.81912926 1.8097641 5.35263417
114 1 0.0 24.53297247 5.35263417 18.5243976
115 1 0.0 24.53297247 20.9901024 7.81912926
116 1 0.0 1.8097641 5.35263417 7.81912926
117 1 0.0 1.8097641 20.9901024 18.5243976
118 1 0.0 18.5243976 20.9901024 1.8097641
119 1 0.0 7.81912926 5.35263417 1.8097641
120 1 0.0 7.81912926 20.9901024 24.53297247
121 1 0.0 18.5243976 5.35263417 24.53297247
122 1 0.0 1.8097641 18.5243976 20.9901024
123 1 0.0 1.8097641 7.81912926 5.35263417
124 1 0.0 24.53297247 7.81912926 20.9901024
125 1 0.0 24.53297247 18.5243976 5.35263417
126 1 0.0 20.9901024 1.8097641 18.5243976
127 1 0.0 5.35263417 1.8097641 7.81912926
128 1 0.0 20.9901024 24.53297247 7.81912926
129 1 0.0 5.35263417 24.53297247 18.5243976
130 1 0.0 20.9901024 18.5243976 24.53297247
131 1 0.0 5.35263417 7.81912926 24.53297247
132 1 0.0 20.9901024 7.81912926 1.8097641
133 1 0.0 5.35263417 18.5243976 1.8097641
134 1 0.0 18.5243976 1.8097641 5.35263417
135 1 0.0 7.81912926 1.8097641 20.9901024
136 1 0.0 7.81912926 24.53297247 5.35263417
137 1 0.0 18.5243976 24.53297247 20.9901024
138 1 0.0 1.8097641 20.9901024 7.81912926
139 1 0.0 1.8097641 5.35263417 18.5243976
140 1 0.0 24.53297247 20.9901024 18.5243976
141 1 0.0 24.53297247 5.35263417 7.81912926
142 1 0.0 7.81912926 18.5243976 11.36199933
143 1 0.0 18.5243976 7.81912926 11.36199933
144 1 0.0 18.5243976 18.5243976 14.98073724
145 1 0.0 7.81912926 7.81912926 14.98073724
146 1 0.0 5.35263417 11.36199933 20.9901024
147 1 0.0 20.9901024 11.36199933 5.35263417
148 1 0.0 5.35263417 14.98073724 5.35263417
149 1 0.0 20.9901024 14.98073724 20.9901024
150 1 0.0 5.35263417 20.9901024 14.98073724
151 1 0.0 20.9901024 5.35263417 14.98073724
152 1 0.0 5.35263417 5.35263417 11.36199933
153 1 0.0 20.9901024 20.9901024 11.36199933
154 1 0.0 7.81912926 11.36199933 7.81912926
155 1 0.0 18.5243976 11.36199933 18.5243976
156 1 0.0 18.5243976 14.98073724 7.81912926
157 1 0.0 7.81912926 14.98073724 18.5243976
158 1 0.0 18.5243976 7.81912926 14.98073724
159 1 0.0 7.81912926 18.5243976 14.98073724
160 1 0.0 7.81912926 7.81912926 11.36199933
161 1 0.0 18.5243976 18.5243976 11.36199933
162 1 0.0 20.9901024 14.98073724 5.35263417
163 1 0.0 5.35263417 14.98073724 20.9901024
164 1 0.0 20.9901024 11.36199933 20.9901024
165 1 0.0 5.35263417 11.36199933 5.35263417
166 1 0.0 20.9901024 5.35263417 11.36199933
167 1 0.0 5.35263417 20.9901024 11.36199933
168 1 0.0 20.9901024 20.9901024 14.98073724
169 1 0.0 5.35263417 5.35263417 14.98073724
170 1 0.0 18.5243976 14.98073724 18.5243976
171 1 0.0 7.81912926 14.98073724 7.81912926
172 1 0.0 7.81912926 11.36199933 18.5243976
173 1 0.0 18.5243976 11.36199933 7.81912926
174 1 0.0 11.36199933 7.81912926 18.5243976
175 1 0.0 11.36199933 18.5243976 7.81912926
176 1 0.0 14.98073724 18.5243976 18.5243976
177 1 0.0 14.98073724 7.81912926 7.81912926
178 1 0.0 11.36199933 5.35263417 5.35263417
179 1 0.0 11.36199933 20.9901024 20.9901024
180 1 0.0 14.98073724 5.35263417 20.9901024
181 1 0.0 14.98073724 20.9901024 5.35263417
182 1 0.0 14.98073724 18.5243976 7.81912926
183 1 0.0 14.98073724 7.81912926 18.5243976
184 1 0.0 11.36199933 7.81912926 7.81912926
185 1 0.0 11.36199933 18.5243976 18.5243976
186 1 0.0 14.98073724 20.9901024 20.9901024
187 1 0.0 14.98073724 5.35263417 5.35263417
188 1 0.0 11.36199933 20.9901024 5.35263417
189 1 0.0 11.36199933 5.35263417 20.9901024
190 1 0.0 9.62810307 5.25305763 22.7998665
191 1 0.0 16.7146335 21.08967894 22.7998665
192 1 0.0 16.7146335 5.25305763 3.54287007
193 1 0.0 9.62810307 21.08967894 3.54287007
194 1 0.0 22.7998665 9.62810307 5.25305763
195 1 0.0 22.7998665 16.7146335 21.08967894
196 1 0.0 3.54287007 16.7146335 5.25305763
197 1 0.0 3.54287007 9.62810307 21.08967894
198 1 0.0 5.25305763 22.7998665 9.62810307
199 1 0.0 21.08967894 22.7998665 16.7146335
200 1 0.0 5.25305763 3.54287007 16.7146335
201 1 0.0 21.08967894 3.54287007 9.62810307
202 1 0.0 5.25305763 9.62810307 3.54287007
203 1 0.0 21.08967894 16.7146335 3.54287007
204 1 0.0 5.25305763 16.7146335 22.7998665
205 1 0.0 9.62810307 22.7998665 21.08967894
206 1 0.0 16.7146335 22.7998665 5.25305763
207 1 0.0 16.7146335 3.54287007 21.08967894
208 1 0.0 9.62810307 3.54287007 5.25305763
209 1 0.0 22.7998665 5.25305763 16.7146335
210 1 0.0 22.7998665 21.08967894 9.62810307
211 1 0.0 3.54287007 5.25305763 9.62810307
212 1 0.0 3.54287007 21.08967894 16.7146335
213 1 0.0 16.7146335 21.08967894 3.54287007
214 1 0.0 9.62810307 5.25305763 3.54287007
215 1 0.0 9.62810307 21.08967894 22.7998665
216 1 0.0 16.7146335 5.25305763 22.7998665
217 1 0.0 3.54287007 16.7146335 21.08967894
218 1 0.0 3.54287007 9.62810307 5.25305763
219 1 0.0 22.7998665 16.7146335 5.25305763
220 1 0.0 21.08967894 3.54287007 16.7146335
221 1 0.0 5.25305763 3.54287007 9.62810307
222 1 0.0 21.08967894 22.7998665 9.62810307
223 1 0.0 5.25305763 22.7998665 16.7146335
224 1 0.0 21.08967894 16.7146335 22.7998665
225 1 0.0 5.25305763 9.62810307 22.7998665
226 1 0.0 21.08967894 9.62810307 3.54287007
227 1 0.0 5.25305763 16.7146335 3.54287007
228 1 0.0 16.7146335 3.54287007 5.25305763
229 1 0.0 9.62810307 3.54287007 21.08967894
230 1 0.0 9.62810307 22.7998665 5.25305763
231 1 0.0 16.7146335 22.7998665 21.08967894
232 1 0.0 3.54287007 21.08967894 9.62810307
233 1 0.0 3.54287007 5.25305763 16.7146335
234 1 0.0 22.7998665 21.08967894 16.7146335
235 1 0.0 22.7998665 5.25305763 9.62810307
236 1 0.0 9.62810307 18.42403077 9.62810307
237 1 0.0 16.7146335 7.9187058 9.62810307
238 1 0.0 16.7146335 18.42403077 16.7146335
239 1 0.0 9.62810307 7.9187058 16.7146335
240 1 0.0 22.7998665 22.7998665 18.42403077
241 1 0.0 22.7998665 3.54287007 7.9187058
242 1 0.0 3.54287007 3.54287007 18.42403077
243 1 0.0 3.54287007 22.7998665 7.9187058
244 1 0.0 9.62810307 9.62810307 7.9187058
245 1 0.0 16.7146335 9.62810307 18.42403077
246 1 0.0 16.7146335 16.7146335 7.9187058
247 1 0.0 9.62810307 16.7146335 18.42403077
248 1 0.0 22.7998665 18.42403077 3.54287007
249 1 0.0 3.54287007 18.42403077 22.7998665
250 1 0.0 3.54287007 7.9187058 3.54287007
251 1 0.0 16.7146335 7.9187058 16.7146335
252 1 0.0 9.62810307 18.42403077 16.7146335
253 1 0.0 9.62810307 7.9187058 9.62810307
254 1 0.0 16.7146335 18.42403077 9.62810307
255 1 0.0 3.54287007 3.54287007 7.9187058
256 1 0.0 3.54287007 22.7998665 18.42403077
257 1 0.0 22.7998665 22.7998665 7.9187058
258 1 0.0 22.7998665 3.54287007 18.42403077
259 1 0.0 16.7146335 16.7146335 18.42403077
260 1 0.0 9.62810307 16.7146335 7.9187058
261 1 0.0 9.62810307 9.62810307 18.42403077
262 1 0.0 16.7146335 9.62810307 7.9187058
263 1 0.0 3.54287007 7.9187058 22.7998665
264 1 0.0 3.54287007 18.42403077 3.54287007
265 1 0.0 22.7998665 7.9187058 3.54287007
266 1 0.0 22.7998665 18.42403077 22.7998665
267 1 0.0 18.42403077 22.7998665 22.7998665
268 1 0.0 7.9187058 22.7998665 3.54287007
269 1 0.0 18.42403077 3.54287007 3.54287007
270 1 0.0 7.9187058 3.54287007 22.7998665
271 1 0.0 18.42403077 9.62810307 16.7146335
272 1 0.0 7.9187058 16.7146335 16.7146335
273 1 0.0 18.42403077 16.7146335 9.62810307
274 1 0.0 7.9187058 9.62810307 9.62810307
275 1 0.0 7.9187058 3.54287007 3.54287007
276 1 0.0 18.42403077 3.54287007 22.7998665
277 1 0.0 7.9187058 22.7998665 22.7998665
278 1 0.0 18.42403077 22.7998665 3.54287007
279 1 0.0 7.9187058 16.7146335 9.62810307
280 1 0.0 18.42403077 9.62810307 9.62810307
281 1 0.0 7.9187058 9.62810307 16.7146335
282 1 0.0 18.42403077 16.7146335 16.7146335
283 2 0.0 7.5156579 7.5156579 0.0
284 2 0.0 18.82707867 18.82707867 0.0
285 2 0.0 18.82707867 7.5156579 0.0
286 2 0.0 7.5156579 18.82707867 0.0
287 2 0.0 0.0 7.5156579 7.5156579
288 2 0.0 0.0 18.82707867 18.82707867
289 2 0.0 0.0 18.82707867 7.5156579
290 2 0.0 0.0 7.5156579 18.82707867
291 2 0.0 7.5156579 0.0 7.5156579
292 2 0.0 18.82707867 0.0 18.82707867
293 2 0.0 7.5156579 0.0 18.82707867
294 2 0.0 18.82707867 0.0 7.5156579
295 2 0.0 7.5156579 20.68663104 13.17176343
296 2 0.0 18.82707867 5.65610553 13.17176343
297 2 0.0 18.82707867 20.68663104 13.17176343
298 2 0.0 7.5156579 5.65610553 13.17176343
299 2 0.0 0.0 20.68663104 20.68663104
300 2 0.0 0.0 5.65610553 5.65610553
301 2 0.0 0.0 5.65610553 20.68663104
302 2 0.0 0.0 20.68663104 5.65610553
303 2 0.0 7.5156579 13.17176343 20.68663104
304 2 0.0 18.82707867 13.17176343 5.65610553
305 2 0.0 7.5156579 13.17176343 5.65610553
306 2 0.0 18.82707867 13.17176343 20.68663104
307 2 0.0 20.68663104 7.5156579 13.17176343
308 2 0.0 5.65610553 18.82707867 13.17176343
309 2 0.0 5.65610553 7.5156579 13.17176343
310 2 0.0 20.68663104 18.82707867 13.17176343
311 2 0.0 13.17176343 7.5156579 20.68663104
312 2 0.0 13.17176343 18.82707867 5.65610553
313 2 0.0 13.17176343 18.82707867 20.68663104
314 2 0.0 13.17176343 7.5156579 5.65610553
315 2 0.0 20.68663104 0.0 20.68663104
316 2 0.0 5.65610553 0.0 5.65610553
317 2 0.0 20.68663104 0.0 5.65610553
318 2 0.0 5.65610553 0.0 20.68663104
319 2 0.0 20.68663104 20.68663104 0.0
320 2 0.0 5.65610553 5.65610553 0.0
321 2 0.0 5.65610553 20.68663104 0.0
322 2 0.0 20.68663104 5.65610553 0.0
323 2 0.0 13.17176343 20.68663104 7.5156579
324 2 0.0 13.17176343 5.65610553 18.82707867
325 2 0.0 13.17176343 5.65610553 7.5156579
326 2 0.0 13.17176343 20.68663104 18.82707867
327 2 0.0 20.68663104 13.17176343 7.5156579
328 2 0.0 5.65610553 13.17176343 18.82707867
329 2 0.0 20.68663104 13.17176343 18.82707867
330 2 0.0 5.65610553 13.17176343 7.5156579
331 3 0.0 10.01613546 6.006204 23.1871086
332 3 0.0 16.3273914 20.33732286 23.1871086
333 3 0.0 16.3273914 6.006204 3.15562797
334 3 0.0 10.01613546 20.33732286 3.15562797
335 3 0.0 23.1871086 10.01613546 6.006204
336 3 0.0 23.1871086 16.3273914 20.33732286
337 3 0.0 3.15562797 16.3273914 6.006204
338 3 0.0 3.15562797 10.01613546 20.33732286
339 3 0.0 6.006204 23.1871086 10.01613546
340 3 0.0 20.33732286 23.1871086 16.3273914
341 3 0.0 6.006204 3.15562797 16.3273914
342 3 0.0 20.33732286 3.15562797 10.01613546
343 3 0.0 6.006204 10.01613546 3.15562797
344 3 0.0 20.33732286 16.3273914 3.15562797
345 3 0.0 6.006204 16.3273914 23.1871086
346 3 0.0 10.01613546 23.1871086 20.33732286
347 3 0.0 16.3273914 23.1871086 6.006204
348 3 0.0 16.3273914 3.15562797 20.33732286
349 3 0.0 10.01613546 3.15562797 6.006204
350 3 0.0 23.1871086 6.006204 16.3273914
351 3 0.0 23.1871086 20.33732286 10.01613546
352 3 0.0 3.15562797 6.006204 10.01613546
353 3 0.0 3.15562797 20.33732286 16.3273914
354 3 0.0 16.3273914 20.33732286 3.15562797
355 3 0.0 10.01613546 6.006204 3.15562797
356 3 0.0 10.01613546 20.33732286 23.1871086
357 3 0.0 16.3273914 6.006204 23.1871086
358 3 0.0 3.15562797 16.3273914 20.33732286
359 3 0.0 3.15562797 10.01613546 6.006204
360 3 0.0 23.1871086 16.3273914 6.006204
361 3 0.0 20.33732286 3.15562797 16.3273914
362 3 0.0 6.006204 3.15562797 10.01613546
363 3 0.0 20.33732286 23.1871086 10.01613546
364 3 0.0 6.006204 23.1871086 16.3273914
365 3 0.0 20.33732286 16.3273914 23.1871086
366 3 0.0 6.006204 10.01613546 23.1871086
367 3 0.0 20.33732286 10.01613546 3.15562797
368 3 0.0 6.006204 16.3273914 3.15562797
369 3 0.0 16.3273914 3.15562797 6.006204
370 3 0.0 10.01613546 3.15562797 20.33732286
371 3 0.0 10.01613546 23.1871086 6.006204
372 3 0.0 16.3273914 23.1871086 20.33732286
373 3 0.0 3.15562797 20.33732286 10.01613546
374 3 0.0 3.15562797 6.006204 16.3273914
375 3 0.0 23.1871086 20.33732286 16.3273914
376 3 0.0 23.1871086 6.006204 10.01613546
377 3 0.0 10.01613546 19.17796743 10.01613546
378 3 0.0 16.3273914 7.16476914 10.01613546
379 3 0.0 16.3273914 19.17796743 16.3273914
380 3 0.0 10.01613546 7.16476914 16.3273914
381 3 0.0 23.1871086 23.1871086 19.17796743
382 3 0.0 23.1871086 3.15562797 7.16476914
383 3 0.0 3.15562797 3.15562797 19.17796743
384 3 0.0 3.15562797 23.1871086 7.16476914
385 3 0.0 10.01613546 10.01613546 7.16476914
386 3 0.0 16.3273914 10.01613546 19.17796743
387 3 0.0 16.3273914 16.3273914 7.16476914
388 3 0.0 10.01613546 16.3273914 19.17796743
389 3 0.0 23.1871086 19.17796743 3.15562797
390 3 0.0 3.15562797 19.17796743 23.1871086
391 3 0.0 3.15562797 7.16476914 3.15562797
392 3 0.0 16.3273914 7.16476914 16.3273914
393 3 0.0 10.01613546 19.17796743 16.3273914
394 3 0.0 10.01613546 7.16476914 10.01613546
395 3 0.0 16.3273914 19.17796743 10.01613546
396 3 0.0 3.15562797 3.15562797 7.16476914
397 3 0.0 3.15562797 23.1871086 19.17796743
398 3 0.0 23.1871086 23.1871086 7.16476914
399 3 0.0 23.1871086 3.15562797 19.17796743
400 3 0.0 16.3273914 16.3273914 19.17796743
401 3 0.0 10.01613546 16.3273914 7.16476914
402 3 0.0 10.01613546 10.01613546 19.17796743
403 3 0.0 16.3273914 10.01613546 7.16476914
404 3 0.0 3.15562797 7.16476914 23.1871086
405 3 0.0 3.15562797 19.17796743 3.15562797
406 3 0.0 23.1871086 7.16476914 3.15562797
407 3 0.0 23.1871086 19.17796743 23.1871086
408 3 0.0 19.17796743 23.1871086 23.1871086
409 3 0.0 7.16476914 23.1871086 3.15562797
410 3 0.0 19.17796743 3.15562797 3.15562797
411 3 0.0 7.16476914 3.15562797 23.1871086
412 3 0.0 19.17796743 10.01613546 16.3273914
413 3 0.0 7.16476914 16.3273914 16.3273914
414 3 0.0 19.17796743 16.3273914 10.01613546
415 3 0.0 7.16476914 10.01613546 10.01613546
416 3 0.0 7.16476914 3.15562797 3.15562797
417 3 0.0 19.17796743 3.15562797 23.1871086
418 3 0.0 7.16476914 23.1871086 23.1871086
419 3 0.0 19.17796743 23.1871086 3.15562797
420 3 0.0 7.16476914 16.3273914 10.01613546
421 3 0.0 19.17796743 10.01613546 10.01613546
422 3 0.0 7.16476914 10.01613546 16.3273914
423 3 0.0 19.17796743 16.3273914 16.3273914
424 4 0.0 8.33993037 6.40371987 24.96763197
425 4 0.0 18.0028062 19.9390167 24.96763197
426 4 0.0 18.0028062 6.40371987 1.3751046
427 4 0.0 8.33993037 19.9390167 1.3751046
428 4 0.0 24.96763197 8.33993037 6.40371987
429 4 0.0 24.96763197 18.0028062 19.9390167
430 4 0.0 1.3751046 18.0028062 6.40371987
431 4 0.0 1.3751046 8.33993037 19.9390167
432 4 0.0 6.40371987 24.96763197 8.33993037
433 4 0.0 19.9390167 24.96763197 18.0028062
434 4 0.0 6.40371987 1.3751046 18.0028062
435 4 0.0 19.9390167 1.3751046 8.33993037
436 4 0.0 6.40371987 8.33993037 1.3751046
437 4 0.0 19.9390167 18.0028062 1.3751046
438 4 0.0 6.40371987 18.0028062 24.96763197
439 4 0.0 19.9390167 8.33993037 24.96763197
440 4 0.0 8.33993037 24.96763197 19.9390167
441 4 0.0 18.0028062 24.96763197 6.40371987
442 4 0.0 18.0028062 1.3751046 19.9390167
443 4 0.0 8.33993037 1.3751046 6.40371987
444 4 0.0 24.96763197 6.40371987 18.0028062
445 4 0.0 24.96763197 19.9390167 8.33993037
446 4 0.0 1.3751046 6.40371987 8.33993037
447 4 0.0 1.3751046 19.9390167 18.0028062
448 4 0.0 18.0028062 19.9390167 1.3751046
449 4 0.0 8.33993037 6.40371987 1.3751046
450 4 0.0 8.33993037 19.9390167 24.96763197
451 4 0.0 18.0028062 6.40371987 24.96763197
452 4 0.0 1.3751046 18.0028062 19.9390167
453 4 0.0 1.3751046 8.33993037 6.40371987
454 4 0.0 24.96763197 8.33993037 19.9390167
455 4 0.0 24.96763197 18.0028062 6.40371987
456 4 0.0 19.9390167 1.3751046 18.0028062
457 4 0.0 6.40371987 1.3751046 8.33993037
458 4 0.0 19.9390167 24.96763197 8.33993037
459 4 0.0 6.40371987 24.96763197 18.0028062
460 4 0.0 19.9390167 18.0028062 24.96763197
461 4 0.0 6.40371987 8.33993037 24.96763197
462 4 0.0 19.9390167 8.33993037 1.3751046
463 4 0.0 6.40371987 18.0028062 1.3751046
464 4 0.0 18.0028062 1.3751046 6.40371987
465 4 0.0 8.33993037 1.3751046 19.9390167
466 4 0.0 8.33993037 24.96763197 6.40371987
467 4 0.0 18.0028062 24.96763197 19.9390167
468 4 0.0 1.3751046 19.9390167 8.33993037
469 4 0.0 1.3751046 6.40371987 18.0028062
470 4 0.0 24.96763197 19.9390167 18.0028062
471 4 0.0 24.96763197 6.40371987 8.33993037
472 4 0.0 8.33993037 19.57469301 11.79586854
473 4 0.0 18.0028062 6.76804356 11.79586854
474 4 0.0 18.0028062 19.57469301 14.54686803
475 4 0.0 8.33993037 6.76804356 14.54686803
476 4 0.0 24.96763197 21.5116938 19.57469301
477 4 0.0 24.96763197 4.83104277 6.76804356
478 4 0.0 1.3751046 4.83104277 19.57469301
479 4 0.0 1.3751046 21.5116938 6.76804356
480 4 0.0 6.40371987 11.79586854 21.5116938
481 4 0.0 19.9390167 11.79586854 4.83104277
482 4 0.0 6.40371987 14.54686803 4.83104277
483 4 0.0 19.9390167 14.54686803 21.5116938
484 4 0.0 6.40371987 21.5116938 14.54686803
485 4 0.0 19.9390167 4.83104277 14.54686803
486 4 0.0 6.40371987 4.83104277 11.79586854
487 4 0.0 19.9390167 21.5116938 11.79586854
488 4 0.0 8.33993037 11.79586854 6.76804356
489 4 0.0 18.0028062 11.79586854 19.57469301
490 4 0.0 18.0028062 14.54686803 6.76804356
491 4 0.0 8.33993037 14.54686803 19.57469301
492 4 0.0 24.96763197 19.57469301 4.83104277
493 4 0.0 24.96763197 6.76804356 21.5116938
494 4 0.0 1.3751046 19.57469301 21.5116938
495 4 0.0 1.3751046 6.76804356 4.83104277
496 4 0.0 18.0028062 6.76804356 14.54686803
497 4 0.0 8.33993037 19.57469301 14.54686803
498 4 0.0 8.33993037 6.76804356 11.79586854
499 4 0.0 18.0028062 19.57469301 11.79586854
500 4 0.0 1.3751046 4.83104277 6.76804356
501 4 0.0 1.3751046 21.5116938 19.57469301
502 4 0.0 24.96763197 21.5116938 6.76804356
503 4 0.0 24.96763197 4.83104277 19.57469301
504 4 0.0 19.9390167 14.54686803 4.83104277
505 4 0.0 6.40371987 14.54686803 21.5116938
506 4 0.0 19.9390167 11.79586854 21.5116938
507 4 0.0 6.40371987 11.79586854 4.83104277
508 4 0.0 19.9390167 4.83104277 11.79586854
509 4 0.0 6.40371987 21.5116938 11.79586854
510 4 0.0 19.9390167 21.5116938 14.54686803
511 4 0.0 6.40371987 4.83104277 14.54686803
512 4 0.0 18.0028062 14.54686803 19.57469301
513 4 0.0 8.33993037 14.54686803 6.76804356
514 4 0.0 8.33993037 11.79586854 19.57469301
515 4 0.0 18.0028062 11.79586854 6.76804356
516 4 0.0 1.3751046 6.76804356 21.5116938
517 4 0.0 1.3751046 19.57469301 4.83104277
518 4 0.0 24.96763197 6.76804356 4.83104277
519 4 0.0 24.96763197 19.57469301 21.5116938
520 4 0.0 21.5116938 6.40371987 11.79586854
521 4 0.0 4.83104277 19.9390167 11.79586854
522 4 0.0 4.83104277 6.40371987 14.54686803
523 4 0.0 21.5116938 19.9390167 14.54686803
524 4 0.0 11.79586854 8.33993037 19.57469301
525 4 0.0 11.79586854 18.0028062 6.76804356
526 4 0.0 14.54686803 18.0028062 19.57469301
527 4 0.0 14.54686803 8.33993037 6.76804356
528 4 0.0 19.57469301 24.96763197 21.5116938
529 4 0.0 6.76804356 24.96763197 4.83104277
530 4 0.0 19.57469301 1.3751046 4.83104277
531 4 0.0 6.76804356 1.3751046 21.5116938
532 4 0.0 19.57469301 8.33993037 14.54686803
533 4 0.0 6.76804356 18.0028062 14.54686803
534 4 0.0 19.57469301 18.0028062 11.79586854
535 4 0.0 6.76804356 8.33993037 11.79586854
536 4 0.0 21.5116938 24.96763197 6.76804356
537 4 0.0 4.83104277 24.96763197 19.57469301
538 4 0.0 4.83104277 1.3751046 6.76804356
539 4 0.0 21.5116938 1.3751046 19.57469301
540 4 0.0 11.79586854 6.40371987 4.83104277
541 4 0.0 11.79586854 19.9390167 21.5116938
542 4 0.0 14.54686803 6.40371987 21.5116938
543 4 0.0 14.54686803 19.9390167 4.83104277
544 4 0.0 4.83104277 19.9390167 14.54686803
545 4 0.0 21.5116938 6.40371987 14.54686803
546 4 0.0 21.5116938 19.9390167 11.79586854
547 4 0.0 4.83104277 6.40371987 11.79586854
548 4 0.0 14.54686803 18.0028062 6.76804356
549 4 0.0 14.54686803 8.33993037 19.57469301
550 4 0.0 11.79586854 8.33993037 6.76804356
551 4 0.0 11.79586854 18.0028062 19.57469301
552 4 0.0 6.76804356 1.3751046 4.83104277
553 4 0.0 19.57469301 1.3751046 21.5116938
554 4 0.0 6.76804356 24.96763197 21.5116938
555 4 0.0 19.57469301 24.96763197 4.83104277
556 4 0.0 6.76804356 18.0028062 11.79586854
557 4 0.0 19.57469301 8.33993037 11.79586854
558 4 0.0 6.76804356 8.33993037 14.54686803
559 4 0.0 19.57469301 18.0028062 14.54686803
560 4 0.0 4.83104277 1.3751046 19.57469301
561 4 0.0 21.5116938 1.3751046 6.76804356
562 4 0.0 21.5116938 24.96763197 19.57469301
563 4 0.0 4.83104277 24.96763197 6.76804356
564 4 0.0 14.54686803 19.9390167 21.5116938
565 4 0.0 14.54686803 6.40371987 4.83104277
566 4 0.0 11.79586854 19.9390167 4.83104277
567 4 0.0 11.79586854 6.40371987 21.5116938
568 4 0.0 21.5116938 19.57469301 24.96763197
569 4 0.0 4.83104277 6.76804356 24.96763197
570 4 0.0 4.83104277 19.57469301 1.3751046
571 4 0.0 21.5116938 6.76804356 1.3751046
572 4 0.0 11.79586854 21.5116938 6.40371987
573 4 0.0 11.79586854 4.83104277 19.9390167
574 4 0.0 14.54686803 4.83104277 6.40371987
575 4 0.0 14.54686803 21.5116938 19.9390167
576 4 0.0 19.57469301 11.79586854 8.33993037
577 4 0.0 6.76804356 11.79586854 18.0028062
578 4 0.0 19.57469301 14.54686803 18.0028062
579 4 0.0 6.76804356 14.54686803 8.33993037
580 4 0.0 19.57469301 21.5116938 1.3751046
581 4 0.0 6.76804356 4.83104277 1.3751046
582 4 0.0 19.57469301 4.83104277 24.96763197
583 4 0.0 6.76804356 21.5116938 24.96763197
584 4 0.0 21.5116938 11.79586854 19.9390167
585 4 0.0 4.83104277 11.79586854 6.40371987
586 4 0.0 4.83104277 14.54686803 19.9390167
587 4 0.0 21.5116938 14.54686803 6.40371987
588 4 0.0 11.79586854 19.57469301 18.0028062
589 4 0.0 11.79586854 6.76804356 8.33993037
590 4 0.0 14.54686803 19.57469301 8.33993037
591 4 0.0 14.54686803 6.76804356 18.0028062
592 4 0.0 4.83104277 6.76804356 1.3751046
593 4 0.0 21.5116938 19.57469301 1.3751046
594 4 0.0 21.5116938 6.76804356 24.96763197
595 4 0.0 4.83104277 19.57469301 24.96763197
596 4 0.0 14.54686803 4.83104277 19.9390167
597 4 0.0 14.54686803 21.5116938 6.40371987
598 4 0.0 11.79586854 21.5116938 19.9390167
599 4 0.0 11.79586854 4.83104277 6.40371987
600 4 0.0 6.76804356 14.54686803 18.0028062
601 4 0.0 19.57469301 14.54686803 8.33993037
602 4 0.0 6.76804356 11.79586854 8.33993037
603 4 0.0 19.57469301 11.79586854 18.0028062
604 4 0.0 6.76804356 4.83104277 24.96763197
605 4 0.0 19.57469301 21.5116938 24.96763197
606 4 0.0 6.76804356 21.5116938 1.3751046
607 4 0.0 19.57469301 4.83104277 1.3751046
608 4 0.0 4.83104277 14.54686803 6.40371987
609 4 0.0 21.5116938 14.54686803 19.9390167
610 4 0.0 21.5116938 11.79586854 6.40371987
611 4 0.0 4.83104277 11.79586854 19.9390167
612 4 0.0 14.54686803 6.76804356 8.33993037
613 4 0.0 14.54686803 19.57469301 18.0028062
614 4 0.0 11.79586854 6.76804356 18.0028062
615 4 0.0 11.79586854 19.57469301 8.33993037
616 1 0.0 34.82491914 4.68879057 23.36571414
617 1 0.0 44.20408086 4.68879057 2.97702243
618 1 0.0 49.709241 8.48218257 4.68879057
619 1 0.0 49.709241 17.86134429 21.653946
620 1 0.0 29.319759 17.86134429 4.68879057
621 1 0.0 29.319759 8.48218257 21.653946
622 1 0.0 31.03231743 23.36571414 8.48218257
623 1 0.0 47.99668257 23.36571414 17.86134429
624 1 0.0 31.03231743 2.97702243 17.86134429
625 1 0.0 47.99668257 2.97702243 8.48218257
626 1 0.0 31.03231743 8.48218257 2.97702243
627 1 0.0 31.03231743 17.86134429 23.36571414
628 1 0.0 47.99668257 8.48218257 23.36571414
629 1 0.0 34.82491914 23.36571414 21.653946
630 1 0.0 44.20408086 23.36571414 4.68879057
631 1 0.0 44.20408086 2.97702243 21.653946
632 1 0.0 34.82491914 2.97702243 4.68879057
633 1 0.0 49.709241 4.68879057 17.86134429
634 1 0.0 49.709241 21.653946 8.48218257
635 1 0.0 29.319759 4.68879057 8.48218257
636 1 0.0 29.319759 21.653946 17.86134429
637 1 0.0 44.20408086 21.653946 2.97702243
638 1 0.0 34.82491914 4.68879057 2.97702243
639 1 0.0 34.82491914 21.653946 23.36571414
640 1 0.0 44.20408086 4.68879057 23.36571414
641 1 0.0 29.319759 17.86134429 21.653946
642 1 0.0 29.319759 8.48218257 4.68879057
643 1 0.0 49.709241 8.48218257 21.653946
644 1 0.0 47.99668257 2.97702243 17.86134429
645 1 0.0 31.03231743 2.97702243 8.48218257
646 1 0.0 47.99668257 23.36571414 8.48218257
647 1 0.0 31.03231743 23.36571414 17.86134429
648 1 0.0 47.99668257 17.86134429 23.36571414
649 1 0.0 31.03231743 8.48218257 23.36571414
650 1 0.0 47.99668257 8.48218257 2.97702243
651 1 0.0 31.03231743 17.86134429 2.97702243
652 1 0.0 44.20408086 2.97702243 4.68879057
653 1 0.0 34.82491914 2.97702243 21.653946
654 1 0.0 29.319759 21.653946 8.48218257
655 1 0.0 29.319759 4.68879057 17.86134429
656 1 0.0 49.709241 21.653946 17.86134429
657 1 0.0 49.709241 4.68879057 8.48218257
658 1 0.0 34.82491914 17.86134429 10.194741
659 1 0.0 44.20408086 8.48218257 10.194741
660 1 0.0 44.20408086 17.86134429 16.14799557
661 1 0.0 34.82491914 8.48218257 16.14799557
662 1 0.0 31.03231743 10.194741 21.653946
663 1 0.0 47.99668257 10.194741 4.68879057
664 1 0.0 31.03231743 16.14799557 4.68879057
665 1 0.0 47.99668257 16.14799557 21.653946
666 1 0.0 31.03231743 21.653946 16.14799557
667 1 0.0 47.99668257 4.68879057 16.14799557
668 1 0.0 31.03231743 4.68879057 10.194741
669 1 0.0 47.99668257 21.653946 10.194741
670 1 0.0 34.82491914 10.194741 8.48218257
671 1 0.0 44.20408086 10.194741 17.86134429
672 1 0.0 44.20408086 16.14799557 8.48218257
673 1 0.0 34.82491914 16.14799557 17.86134429