# LAMMPS data file written by OVITO Basic 3.5.4
15942 atoms
4 atom types
0.0 79.029 xlo xhi
0.0 79.029 ylo yhi
0.0 79.029 zlo zhi
0.00000 0.00000 0.0000 xy xz yz

Masses

1 12.0107  # C
2 63.546  # Cu
3 1.00794  # H
4 15.9994  # O

Atoms  # charge

1 1 0.0 8.48218257 4.68879057 23.36571414
2 1 0.0 17.86134429 21.653946 23.36571414
3 1 0.0 17.86134429 4.68879057 2.97702243
4 1 0.0 8.48218257 21.653946 2.97702243
5 1 0.0 23.36571414 8.48218257 4.68879057
6 1 0.0 23.36571414 17.86134429 21.653946
7 1 0.0 2.97702243 17.86134429 4.68879057
8 1 0.0 2.97702243 8.48218257 21.653946
9 1 0.0 21.653946 23.36571414 17.86134429
10 1 0.0 4.68879057 2.97702243 17.86134429
11 1 0.0 21.653946 2.97702243 8.48218257
12 1 0.0 4.68879057 8.48218257 2.97702243
13 1 0.0 21.653946 17.86134429 2.97702243
14 1 0.0 4.68879057 17.86134429 23.36571414
15 1 0.0 21.653946 8.48218257 23.36571414
16 1 0.0 8.48218257 23.36571414 21.653946
17 1 0.0 17.86134429 23.36571414 4.68879057
18 1 0.0 17.86134429 2.97702243 21.653946
19 1 0.0 8.48218257 2.97702243 4.68879057
20 1 0.0 23.36571414 4.68879057 17.86134429
21 1 0.0 23.36571414 21.653946 8.48218257
22 1 0.0 2.97702243 4.68879057 8.48218257
23 1 0.0 2.97702243 21.653946 17.86134429
24 1 0.0 17.86134429 21.653946 2.97702243
25 1 0.0 8.48218257 4.68879057 2.97702243
26 1 0.0 8.48218257 21.653946 23.36571414
27 1 0.0 17.86134429 4.68879057 23.36571414
28 1 0.0 2.97702243 17.86134429 21.653946
29 1 0.0 2.97702243 8.48218257 4.68879057
30 1 0.0 23.36571414 8.48218257 21.653946
31 1 0.0 23.36571414 17.86134429 4.68879057
32 1 0.0 21.653946 2.97702243 17.86134429
33 1 0.0 4.68879057 2.97702243 8.48218257
34 1 0.0 21.653946 23.36571414 8.48218257
35 1 0.0 4.68879057 23.36571414 17.86134429
36 1 0.0 21.653946 17.86134429 23.36571414
37 1 0.0 4.68879057 8.48218257 23.36571414
38 1 0.0 21.653946 8.48218257 2.97702243
39 1 0.0 4.68879057 17.86134429 2.97702243
40 1 0.0 17.86134429 2.97702243 4.68879057
41 1 0.0 8.48218257 2.97702243 21.653946
42 1 0.0 8.48218257 23.36571414 4.68879057
43 1 0.0 17.86134429 23.36571414 21.653946
44 1 0.0 2.97702243 4.68879057 17.86134429
45 1 0.0 23.36571414 21.653946 17.86134429
46 1 0.0 23.36571414 4.68879057 8.48218257
47 1 0.0 17.86134429 17.86134429 16.14799557
48 1 0.0 8.48218257 8.48218257 16.14799557
49 1 0.0 4.68879057 10.194741 21.653946
50 1 0.0 21.653946 10.194741 4.68879057
51 1 0.0 4.68879057 16.14799557 4.68879057
52 1 0.0 21.653946 16.14799557 21.653946
53 1 0.0 4.68879057 21.653946 16.14799557
54 1 0.0 21.653946 4.68879057 16.14799557
55 1 0.0 4.68879057 4.68879057 10.194741
56 1 0.0 21.653946 21.653946 10.194741
57 1 0.0 17.86134429 10.194741 17.86134429
58 1 0.0 17.86134429 16.14799557 8.48218257
59 1 0.0 8.48218257 16.14799557 17.86134429
60 1 0.0 17.86134429 8.48218257 16.14799557
61 1 0.0 8.48218257 17.86134429 16.14799557
62 1 0.0 17.86134429 17.86134429 10.194741
63 1 0.0 21.653946 16.14799557 4.68879057
64 1 0.0 4.68879057 16.14799557 21.653946
65 1 0.0 21.653946 10.194741 21.653946
66 1 0.0 4.68879057 10.194741 4.68879057
67 1 0.0 21.653946 4.68879057 10.194741
68 1 0.0 21.653946 21.653946 16.14799557
69 1 0.0 4.68879057 4.68879057 16.14799557
70 1 0.0 17.86134429 16.14799557 17.86134429
71 1 0.0 8.48218257 10.194741 17.86134429
72 1 0.0 10.194741 8.48218257 17.86134429
73 1 0.0 16.14799557 17.86134429 17.86134429
74 1 0.0 10.194741 4.68879057 4.68879057
75 1 0.0 10.194741 21.653946 21.653946
76 1 0.0 16.14799557 4.68879057 21.653946
77 1 0.0 16.14799557 21.653946 4.68879057
78 1 0.0 16.14799557 17.86134429 8.48218257
79 1 0.0 16.14799557 8.48218257 17.86134429
80 1 0.0 10.194741 17.86134429 17.86134429
81 1 0.0 16.14799557 21.653946 21.653946
82 1 0.0 16.14799557 4.68879057 4.68879057
83 1 0.0 10.194741 21.653946 4.68879057
84 1 0.0 10.194741 4.68879057 21.653946
85 1 0.0 7.81912926 5.35263417 24.53297247
86 1 0.0 18.5243976 20.9901024 24.53297247
87 1 0.0 18.5243976 5.35263417 1.8097641
88 1 0.0 7.81912926 20.9901024 1.8097641
89 1 0.0 24.53297247 7.81912926 5.35263417
90 1 0.0 24.53297247 18.5243976 20.9901024
91 1 0.0 1.8097641 18.5243976 5.35263417
92 1 0.0 1.8097641 7.81912926 20.9901024
93 1 0.0 5.35263417 24.53297247 7.81912926
94 1 0.0 20.9901024 24.53297247 18.5243976
95 1 0.0 5.35263417 1.8097641 18.5243976
96 1 0.0 20.9901024 1.8097641 7.81912926
97 1 0.0 5.35263417 7.81912926 1.8097641
98 1 0.0 20.9901024 18.5243976 1.8097641
99 1 0.0 5.35263417 18.5243976 24.53297247
100 1 0.0 20.9901024 7.81912926 24.53297247
101 1 0.0 7.81912926 24.53297247 20.9901024
102 1 0.0 18.5243976 24.53297247 5.35263417
103 1 0.0 18.5243976 1.8097641 20.9901024
104 1 0.0 7.81912926 1.8097641 5.35263417
105 1 0.0 24.53297247 5.35263417 18.5243976
106 1 0.0 24.53297247 20.9901024 7.81912926
107 1 0.0 1.8097641 5.35263417 7.81912926
108 1 0.0 1.8097641 20.9901024 18.5243976
109 1 0.0 18.5243976 20.9901024 1.8097641
110 1 0.0 7.81912926 5.35263417 1.8097641
111 1 0.0 7.81912926 20.9901024 24.53297247
112 1 0.0 18.5243976 5.35263417 24.53297247
113 1 0.0 1.8097641 18.5243976 20.9901024
114 1 0.0 1.8097641 7.81912926 5.35263417
115 1 0.0 24.53297247 7.81912926 20.9901024
116 1 0.0 24.53297247 18.5243976 5.35263417
117 1 0.0 20.9901024 1.8097641 18.5243976
118 1 0.0 5.35263417 1.8097641 7.81912926
119 1 0.0 20.9901024 24.53297247 7.81912926
120 1 0.0 5.35263417 24.53297247 18.5243976
121 1 0.0 20.9901024 18.5243976 24.53297247
122 1 0.0 5.35263417 7.81912926 24.53297247
123 1 0.0 20.9901024 7.81912926 1.8097641
124 1 0.0 5.35263417 18.5243976 1.8097641
125 1 0.0 18.5243976 1.8097641 5.35263417
126 1 0.0 7.81912926 1.8097641 20.9901024
127 1 0.0 7.81912926 24.53297247 5.35263417
128 1 0.0 18.5243976 24.53297247 20.9901024
129 1 0.0 1.8097641 20.9901024 7.81912926
130 1 0.0 1.8097641 5.35263417 18.5243976
131 1 0.0 24.53297247 20.9901024 18.5243976
132 1 0.0 24.53297247 5.35263417 7.81912926
133 1 0.0 7.81912926 18.5243976 11.36199933
134 1 0.0 18.5243976 7.81912926 11.36199933
135 1 0.0 18.5243976 18.5243976 14.98073724
136 1 0.0 7.81912926 7.81912926 14.98073724
137 1 0.0 5.35263417 11.36199933 20.9901024
138 1 0.0 20.9901024 11.36199933 5.35263417
139 1 0.0 5.35263417 14.98073724 5.35263417
140 1 0.0 20.9901024 14.98073724 20.9901024
141 1 0.0 5.35263417 20.9901024 14.98073724
142 1 0.0 20.9901024 5.35263417 14.98073724
143 1 0.0 5.35263417 5.35263417 11.36199933
144 1 0.0 20.9901024 20.9901024 11.36199933
145 1 0.0 7.81912926 11.36199933 7.81912926
146 1 0.0 18.5243976 11.36199933 18.5243976
147 1 0.0 18.5243976 14.98073724 7.81912926
148 1 0.0 7.81912926 14.98073724 18.5243976
149 1 0.0 18.5243976 7.81912926 14.98073724
150 1 0.0 7.81912926 18.5243976 14.98073724
151 1 0.0 7.81912926 7.81912926 11.36199933
152 1 0.0 18.5243976 18.5243976 11.36199933
153 1 0.0 20.9901024 14.98073724 5.35263417
154 1 0.0 5.35263417 14.98073724 20.9901024
155 1 0.0 20.9901024 11.36199933 20.9901024
156 1 0.0 5.35263417 11.36199933 5.35263417
157 1 0.0 20.9901024 5.35263417 11.36199933
158 1 0.0 5.35263417 20.9901024 11.36199933
159 1 0.0 20.9901024 20.9901024 14.98073724
160 1 0.0 5.35263417 5.35263417 14.98073724
161 1 0.0 18.5243976 14.98073724 18.5243976
162 1 0.0 7.81912926 14.98073724 7.81912926
163 1 0.0 7.81912926 11.36199933 18.5243976
164 1 0.0 18.5243976 11.36199933 7.81912926
165 1 0.0 11.36199933 7.81912926 18.5243976
166 1 0.0 11.36199933 18.5243976 7.81912926
167 1 0.0 14.98073724 18.5243976 18.5243976
168 1 0.0 14.98073724 7.81912926 7.81912926
169 1 0.0 11.36199933 5.35263417 5.35263417
170 1 0.0 11.36199933 20.9901024 20.9901024
171 1 0.0 14.98073724 5.35263417 20.9901024
172 1 0.0 14.98073724 20.9901024 5.35263417
173 1 0.0 14.98073724 18.5243976 7.81912926
174 1 0.0 14.98073724 7.81912926 18.5243976
175 1 0.0 11.36199933 7.81912926 7.81912926
176 1 0.0 11.36199933 18.5243976 18.5243976
177 1 0.0 14.98073724 20.9901024 20.9901024
178 1 0.0 14.98073724 5.35263417 5.35263417
179 1 0.0 11.36199933 20.9901024 5.35263417
180 1 0.0 11.36199933 5.35263417 20.9901024
181 1 0.0 9.62810307 5.25305763 22.7998665
182 1 0.0 16.7146335 21.08967894 22.7998665
183 1 0.0 16.7146335 5.25305763 3.54287007
184 1 0.0 9.62810307 21.08967894 3.54287007
185 1 0.0 22.7998665 9.62810307 5.25305763
186 1 0.0 22.7998665 16.7146335 21.08967894
187 1 0.0 3.54287007 16.7146335 5.25305763
188 1 0.0 3.54287007 9.62810307 21.08967894
189 1 0.0 21.08967894 22.7998665 16.7146335
190 1 0.0 5.25305763 3.54287007 16.7146335
191 1 0.0 21.08967894 3.54287007 9.62810307
192 1 0.0 5.25305763 9.62810307 3.54287007
193 1 0.0 21.08967894 16.7146335 3.54287007
194 1 0.0 5.25305763 16.7146335 22.7998665
195 1 0.0 21.08967894 9.62810307 22.7998665
196 1 0.0 9.62810307 22.7998665 21.08967894
197 1 0.0 16.7146335 22.7998665 5.25305763
198 1 0.0 16.7146335 3.54287007 21.08967894
199 1 0.0 9.62810307 3.54287007 5.25305763
200 1 0.0 22.7998665 5.25305763 16.7146335
201 1 0.0 22.7998665 21.08967894 9.62810307
202 1 0.0 3.54287007 5.25305763 9.62810307
203 1 0.0 3.54287007 21.08967894 16.7146335
204 1 0.0 16.7146335 21.08967894 3.54287007
205 1 0.0 9.62810307 5.25305763 3.54287007
206 1 0.0 9.62810307 21.08967894 22.7998665
207 1 0.0 16.7146335 5.25305763 22.7998665
208 1 0.0 3.54287007 16.7146335 21.08967894
209 1 0.0 3.54287007 9.62810307 5.25305763
210 1 0.0 22.7998665 9.62810307 21.08967894
211 1 0.0 22.7998665 16.7146335 5.25305763
212 1 0.0 21.08967894 3.54287007 16.7146335
213 1 0.0 5.25305763 3.54287007 9.62810307
214 1 0.0 21.08967894 22.7998665 9.62810307
215 1 0.0 5.25305763 22.7998665 16.7146335
216 1 0.0 21.08967894 16.7146335 22.7998665
217 1 0.0 5.25305763 9.62810307 22.7998665
218 1 0.0 21.08967894 9.62810307 3.54287007
219 1 0.0 5.25305763 16.7146335 3.54287007
220 1 0.0 16.7146335 3.54287007 5.25305763
221 1 0.0 9.62810307 3.54287007 21.08967894
222 1 0.0 9.62810307 22.7998665 5.25305763
223 1 0.0 16.7146335 22.7998665 21.08967894
224 1 0.0 3.54287007 5.25305763 16.7146335
225 1 0.0 22.7998665 21.08967894 16.7146335
226 1 0.0 22.7998665 5.25305763 9.62810307
227 1 0.0 16.7146335 18.42403077 16.7146335
228 1 0.0 9.62810307 7.9187058 16.7146335
229 1 0.0 22.7998665 22.7998665 18.42403077
230 1 0.0 22.7998665 3.54287007 7.9187058
231 1 0.0 3.54287007 3.54287007 18.42403077
232 1 0.0 16.7146335 9.62810307 18.42403077
233 1 0.0 16.7146335 16.7146335 7.9187058
234 1 0.0 9.62810307 16.7146335 18.42403077
235 1 0.0 22.7998665 18.42403077 3.54287007
236 1 0.0 22.7998665 7.9187058 22.7998665
237 1 0.0 3.54287007 18.42403077 22.7998665
238 1 0.0 3.54287007 7.9187058 3.54287007
239 1 0.0 16.7146335 7.9187058 16.7146335
240 1 0.0 9.62810307 18.42403077 16.7146335
241 1 0.0 16.7146335 18.42403077 9.62810307
242 1 0.0 3.54287007 3.54287007 7.9187058
243 1 0.0 3.54287007 22.7998665 18.42403077
244 1 0.0 22.7998665 22.7998665 7.9187058
245 1 0.0 22.7998665 3.54287007 18.42403077
246 1 0.0 16.7146335 16.7146335 18.42403077
247 1 0.0 9.62810307 9.62810307 18.42403077
248 1 0.0 3.54287007 7.9187058 22.7998665
249 1 0.0 3.54287007 18.42403077 3.54287007
250 1 0.0 22.7998665 7.9187058 3.54287007
251 1 0.0 22.7998665 18.42403077 22.7998665
252 1 0.0 18.42403077 22.7998665 22.7998665
253 1 0.0 7.9187058 22.7998665 3.54287007
254 1 0.0 18.42403077 3.54287007 3.54287007
255 1 0.0 7.9187058 3.54287007 22.7998665
256 1 0.0 18.42403077 9.62810307 16.7146335
257 1 0.0 7.9187058 16.7146335 16.7146335
258 1 0.0 18.42403077 16.7146335 9.62810307
259 1 0.0 7.9187058 3.54287007 3.54287007
260 1 0.0 18.42403077 3.54287007 22.7998665
261 1 0.0 7.9187058 22.7998665 22.7998665
262 1 0.0 18.42403077 22.7998665 3.54287007
263 1 0.0 7.9187058 9.62810307 16.7146335
264 1 0.0 18.42403077 16.7146335 16.7146335
265 2 0.0 7.5156579 7.5156579 0.0
266 2 0.0 18.82707867 18.82707867 0.0
267 2 0.0 18.82707867 7.5156579 0.0
268 2 0.0 7.5156579 18.82707867 0.0
269 2 0.0 0.0 7.5156579 7.5156579
270 2 0.0 0.0 18.82707867 18.82707867
271 2 0.0 0.0 18.82707867 7.5156579
272 2 0.0 0.0 7.5156579 18.82707867
273 2 0.0 7.5156579 0.0 7.5156579
274 2 0.0 18.82707867 0.0 18.82707867
275 2 0.0 7.5156579 0.0 18.82707867
276 2 0.0 18.82707867 0.0 7.5156579
277 2 0.0 7.5156579 20.68663104 13.17176343
278 2 0.0 18.82707867 5.65610553 13.17176343
279 2 0.0 18.82707867 20.68663104 13.17176343
280 2 0.0 7.5156579 5.65610553 13.17176343
281 2 0.0 0.0 20.68663104 20.68663104
282 2 0.0 0.0 5.65610553 5.65610553
283 2 0.0 0.0 5.65610553 20.68663104
284 2 0.0 0.0 20.68663104 5.65610553
285 2 0.0 7.5156579 13.17176343 20.68663104
286 2 0.0 18.82707867 13.17176343 5.65610553
287 2 0.0 7.5156579 13.17176343 5.65610553
288 2 0.0 18.82707867 13.17176343 20.68663104
289 2 0.0 20.68663104 7.5156579 13.17176343
290 2 0.0 5.65610553 18.82707867 13.17176343
291 2 0.0 5.65610553 7.5156579 13.17176343
292 2 0.0 20.68663104 18.82707867 13.17176343
293 2 0.0 13.17176343 7.5156579 20.68663104
294 2 0.0 13.17176343 18.82707867 5.65610553
295 2 0.0 13.17176343 18.82707867 20.68663104
296 2 0.0 13.17176343 7.5156579 5.65610553
297 2 0.0 20.68663104 0.0 20.68663104
298 2 0.0 5.65610553 0.0 5.65610553
299 2 0.0 20.68663104 0.0 5.65610553
300 2 0.0 5.65610553 0.0 20.68663104
301 2 0.0 20.68663104 20.68663104 0.0
302 2 0.0 5.65610553 5.65610553 0.0
303 2 0.0 5.65610553 20.68663104 0.0
304 2 0.0 20.68663104 5.65610553 0.0
305 2 0.0 13.17176343 20.68663104 7.5156579
306 2 0.0 13.17176343 5.65610553 18.82707867
307 2 0.0 13.17176343 5.65610553 7.5156579
308 2 0.0 13.17176343 20.68663104 18.82707867
309 2 0.0 20.68663104 13.17176343 7.5156579
310 2 0.0 5.65610553 13.17176343 18.82707867
311 2 0.0 20.68663104 13.17176343 18.82707867
312 2 0.0 5.65610553 13.17176343 7.5156579
313 3 0.0 10.01613546 6.006204 23.1871086
314 3 0.0 16.3273914 20.33732286 23.1871086
315 3 0.0 16.3273914 6.006204 3.15562797
316 3 0.0 10.01613546 20.33732286 3.15562797
317 3 0.0 23.1871086 10.01613546 6.006204
318 3 0.0 23.1871086 16.3273914 20.33732286
319 3 0.0 3.15562797 16.3273914 6.006204
320 3 0.0 3.15562797 10.01613546 20.33732286
321 3 0.0 20.33732286 23.1871086 16.3273914
322 3 0.0 6.006204 3.15562797 16.3273914
323 3 0.0 20.33732286 3.15562797 10.01613546
324 3 0.0 6.006204 10.01613546 3.15562797
325 3 0.0 20.33732286 16.3273914 3.15562797
326 3 0.0 6.006204 16.3273914 23.1871086
327 3 0.0 20.33732286 10.01613546 23.1871086
328 3 0.0 10.01613546 23.1871086 20.33732286
329 3 0.0 16.3273914 23.1871086 6.006204
330 3 0.0 16.3273914 3.15562797 20.33732286
331 3 0.0 10.01613546 3.15562797 6.006204
332 3 0.0 23.1871086 6.006204 16.3273914
333 3 0.0 23.1871086 20.33732286 10.01613546
334 3 0.0 3.15562797 6.006204 10.01613546
335 3 0.0 3.15562797 20.33732286 16.3273914
336 3 0.0 16.3273914 20.33732286 3.15562797
337 3 0.0 10.01613546 6.006204 3.15562797
338 3 0.0 10.01613546 20.33732286 23.1871086
339 3 0.0 16.3273914 6.006204 23.1871086
340 3 0.0 3.15562797 16.3273914 20.33732286
341 3 0.0 3.15562797 10.01613546 6.006204
342 3 0.0 23.1871086 10.01613546 20.33732286
343 3 0.0 23.1871086 16.3273914 6.006204
344 3 0.0 20.33732286 3.15562797 16.3273914
345 3 0.0 6.006204 3.15562797 10.01613546
346 3 0.0 20.33732286 23.1871086 10.01613546
347 3 0.0 6.006204 23.1871086 16.3273914
348 3 0.0 20.33732286 16.3273914 23.1871086
349 3 0.0 6.006204 10.01613546 23.1871086
350 3 0.0 20.33732286 10.01613546 3.15562797
351 3 0.0 6.006204 16.3273914 3.15562797
352 3 0.0 16.3273914 3.15562797 6.006204
353 3 0.0 10.01613546 3.15562797 20.33732286
354 3 0.0 10.01613546 23.1871086 6.006204
355 3 0.0 16.3273914 23.1871086 20.33732286
356 3 0.0 3.15562797 6.006204 16.3273914
357 3 0.0 23.1871086 20.33732286 16.3273914
358 3 0.0 23.1871086 6.006204 10.01613546
359 3 0.0 16.3273914 19.17796743 16.3273914
360 3 0.0 10.01613546 7.16476914 16.3273914
361 3 0.0 23.1871086 23.1871086 19.17796743
362 3 0.0 23.1871086 3.15562797 7.16476914
363 3 0.0 3.15562797 3.15562797 19.17796743
364 3 0.0 16.3273914 10.01613546 19.17796743
365 3 0.0 16.3273914 16.3273914 7.16476914
366 3 0.0 10.01613546 16.3273914 19.17796743
367 3 0.0 23.1871086 19.17796743 3.15562797
368 3 0.0 23.1871086 7.16476914 23.1871086
369 3 0.0 3.15562797 19.17796743 23.1871086
370 3 0.0 3.15562797 7.16476914 3.15562797
371 3 0.0 16.3273914 7.16476914 16.3273914
372 3 0.0 10.01613546 19.17796743 16.3273914
373 3 0.0 16.3273914 19.17796743 10.01613546
374 3 0.0 3.15562797 3.15562797 7.16476914
375 3 0.0 3.15562797 23.1871086 19.17796743
376 3 0.0 23.1871086 23.1871086 7.16476914
377 3 0.0 23.1871086 3.15562797 19.17796743
378 3 0.0 16.3273914 16.3273914 19.17796743
379 3 0.0 10.01613546 10.01613546 19.17796743
380 3 0.0 3.15562797 7.16476914 23.1871086
381 3 0.0 3.15562797 19.17796743 3.15562797
382 3 0.0 23.1871086 7.16476914 3.15562797
383 3 0.0 23.1871086 19.17796743 23.1871086
384 3 0.0 19.17796743 23.1871086 23.1871086
385 3 0.0 7.16476914 23.1871086 3.15562797
386 3 0.0 19.17796743 3.15562797 3.15562797
387 3 0.0 7.16476914 3.15562797 23.1871086
388 3 0.0 19.17796743 10.01613546 16.3273914
389 3 0.0 7.16476914 16.3273914 16.3273914
390 3 0.0 19.17796743 16.3273914 10.01613546
391 3 0.0 7.16476914 3.15562797 3.15562797
392 3 0.0 19.17796743 3.15562797 23.1871086
393 3 0.0 7.16476914 23.1871086 23.1871086
394 3 0.0 19.17796743 23.1871086 3.15562797
395 3 0.0 7.16476914 10.01613546 16.3273914
396 3 0.0 19.17796743 16.3273914 16.3273914
397 4 0.0 8.33993037 6.40371987 24.96763197
398 4 0.0 18.0028062 19.9390167 24.96763197
399 4 0.0 18.0028062 6.40371987 1.3751046
400 4 0.0 8.33993037 19.9390167 1.3751046
401 4 0.0 24.96763197 8.33993037 6.40371987
402 4 0.0 24.96763197 18.0028062 19.9390167
403 4 0.0 1.3751046 18.0028062 6.40371987
404 4 0.0 1.3751046 8.33993037 19.9390167
405 4 0.0 6.40371987 24.96763197 8.33993037
406 4 0.0 19.9390167 24.96763197 18.0028062
407 4 0.0 6.40371987 1.3751046 18.0028062
408 4 0.0 19.9390167 1.3751046 8.33993037
409 4 0.0 6.40371987 8.33993037 1.3751046
410 4 0.0 19.9390167 18.0028062 1.3751046
411 4 0.0 6.40371987 18.0028062 24.96763197
412 4 0.0 19.9390167 8.33993037 24.96763197
413 4 0.0 8.33993037 24.96763197 19.9390167
414 4 0.0 18.0028062 24.96763197 6.40371987
415 4 0.0 18.0028062 1.3751046 19.9390167
416 4 0.0 8.33993037 1.3751046 6.40371987
417 4 0.0 24.96763197 6.40371987 18.0028062
418 4 0.0 24.96763197 19.9390167 8.33993037
419 4 0.0 1.3751046 6.40371987 8.33993037
420 4 0.0 1.3751046 19.9390167 18.0028062
421 4 0.0 18.0028062 19.9390167 1.3751046
422 4 0.0 8.33993037 6.40371987 1.3751046
423 4 0.0 8.33993037 19.9390167 24.96763197
424 4 0.0 18.0028062 6.40371987 24.96763197
425 4 0.0 1.3751046 18.0028062 19.9390167
426 4 0.0 1.3751046 8.33993037 6.40371987
427 4 0.0 24.96763197 8.33993037 19.9390167
428 4 0.0 24.96763197 18.0028062 6.40371987
429 4 0.0 19.9390167 1.3751046 18.0028062
430 4 0.0 6.40371987 1.3751046 8.33993037
431 4 0.0 19.9390167 24.96763197 8.33993037
432 4 0.0 6.40371987 24.96763197 18.0028062
433 4 0.0 19.9390167 18.0028062 24.96763197
434 4 0.0 6.40371987 8.33993037 24.96763197
435 4 0.0 19.9390167 8.33993037 1.3751046
436 4 0.0 6.40371987 18.0028062 1.3751046
437 4 0.0 18.0028062 1.3751046 6.40371987
438 4 0.0 8.33993037 1.3751046 19.9390167
439 4 0.0 8.33993037 24.96763197 6.40371987
440 4 0.0 18.0028062 24.96763197 19.9390167
441 4 0.0 1.3751046 19.9390167 8.33993037
442 4 0.0 1.3751046 6.40371987 18.0028062
443 4 0.0 24.96763197 19.9390167 18.0028062
444 4 0.0 24.96763197 6.40371987 8.33993037
445 4 0.0 8.33993037 19.57469301 11.79586854
446 4 0.0 18.0028062 6.76804356 11.79586854
447 4 0.0 18.0028062 19.57469301 14.54686803
448 4 0.0 8.33993037 6.76804356 14.54686803
449 4 0.0 24.96763197 21.5116938 19.57469301
450 4 0.0 24.96763197 4.83104277 6.76804356
451 4 0.0 1.3751046 4.83104277 19.57469301
452 4 0.0 1.3751046 21.5116938 6.76804356
453 4 0.0 6.40371987 11.79586854 21.5116938
454 4 0.0 19.9390167 11.79586854 4.83104277
455 4 0.0 6.40371987 14.54686803 4.83104277
456 4 0.0 19.9390167 14.54686803 21.5116938
457 4 0.0 6.40371987 21.5116938 14.54686803
458 4 0.0 19.9390167 4.83104277 14.54686803
459 4 0.0 6.40371987 4.83104277 11.79586854
460 4 0.0 19.9390167 21.5116938 11.79586854
461 4 0.0 8.33993037 11.79586854 6.76804356
462 4 0.0 18.0028062 11.79586854 19.57469301
463 4 0.0 18.0028062 14.54686803 6.76804356
464 4 0.0 8.33993037 14.54686803 19.57469301
465 4 0.0 24.96763197 19.57469301 4.83104277
466 4 0.0 24.96763197 6.76804356 21.5116938
467 4 0.0 1.3751046 19.57469301 21.5116938
468 4 0.0 1.3751046 6.76804356 4.83104277
469 4 0.0 18.0028062 6.76804356 14.54686803
470 4 0.0 8.33993037 19.57469301 14.54686803
471 4 0.0 8.33993037 6.76804356 11.79586854
472 4 0.0 18.0028062 19.57469301 11.79586854
473 4 0.0 1.3751046 4.83104277 6.76804356
474 4 0.0 1.3751046 21.5116938 19.57469301
475 4 0.0 24.96763197 21.5116938 6.76804356
476 4 0.0 24.96763197 4.83104277 19.57469301
477 4 0.0 19.9390167 14.54686803 4.83104277
478 4 0.0 6.40371987 14.54686803 21.5116938
479 4 0.0 19.9390167 11.79586854 21.5116938
480 4 0.0 6.40371987 11.79586854 4.83104277
481 4 0.0 19.9390167 4.83104277 11.79586854
482 4 0.0 6.40371987 21.5116938 11.79586854
483 4 0.0 19.9390167 21.5116938 14.54686803
484 4 0.0 6.40371987 4.83104277 14.54686803
485 4 0.0 18.0028062 14.54686803 19.57469301
486 4 0.0 8.33993037 14.54686803 6.76804356
487 4 0.0 8.33993037 11.79586854 19.57469301
488 4 0.0 18.0028062 11.79586854 6.76804356
489 4 0.0 1.3751046 6.76804356 21.5116938
490 4 0.0 1.3751046 19.57469301 4.83104277
491 4 0.0 24.96763197 6.76804356 4.83104277
492 4 0.0 24.96763197 19.57469301 21.5116938
493 4 0.0 21.5116938 6.40371987 11.79586854
494 4 0.0 4.83104277 19.9390167 11.79586854
495 4 0.0 4.83104277 6.40371987 14.54686803
496 4 0.0 21.5116938 19.9390167 14.54686803
497 4 0.0 11.79586854 8.33993037 19.57469301
498 4 0.0 11.79586854 18.0028062 6.76804356
499 4 0.0 14.54686803 18.0028062 19.57469301
500 4 0.0 14.54686803 8.33993037 6.76804356
501 4 0.0 19.57469301 24.96763197 21.5116938
502 4 0.0 6.76804356 24.96763197 4.83104277
503 4 0.0 19.57469301 1.3751046 4.83104277
504 4 0.0 6.76804356 1.3751046 21.5116938
505 4 0.0 19.57469301 8.33993037 14.54686803
506 4 0.0 6.76804356 18.0028062 14.54686803
507 4 0.0 19.57469301 18.0028062 11.79586854
508 4 0.0 6.76804356 8.33993037 11.79586854
509 4 0.0 21.5116938 24.96763197 6.76804356
510 4 0.0 4.83104277 24.96763197 19.57469301
511 4 0.0 4.83104277 1.3751046 6.76804356
512 4 0.0 21.5116938 1.3751046 19.57469301
513 4 0.0 11.79586854 6.40371987 4.83104277
514 4 0.0 11.79586854 19.9390167 21.5116938
515 4 0.0 14.54686803 6.40371987 21.5116938
516 4 0.0 14.54686803 19.9390167 4.83104277
517 4 0.0 4.83104277 19.9390167 14.54686803
518 4 0.0 21.5116938 6.40371987 14.54686803
519 4 0.0 21.5116938 19.9390167 11.79586854
520 4 0.0 4.83104277 6.40371987 11.79586854
521 4 0.0 14.54686803 18.0028062 6.76804356
522 4 0.0 14.54686803 8.33993037 19.57469301
523 4 0.0 11.79586854 8.33993037 6.76804356
524 4 0.0 11.79586854 18.0028062 19.57469301
525 4 0.0 6.76804356 1.3751046 4.83104277
526 4 0.0 19.57469301 1.3751046 21.5116938
527 4 0.0 6.76804356 24.96763197 21.5116938
528 4 0.0 19.57469301 24.96763197 4.83104277
529 4 0.0 6.76804356 18.0028062 11.79586854
530 4 0.0 19.57469301 8.33993037 11.79586854
531 4 0.0 6.76804356 8.33993037 14.54686803
532 4 0.0 19.57469301 18.0028062 14.54686803
533 4 0.0 4.83104277 1.3751046 19.57469301
534 4 0.0 21.5116938 1.3751046 6.76804356
535 4 0.0 21.5116938 24.96763197 19.57469301
536 4 0.0 4.83104277 24.96763197 6.76804356
537 4 0.0 14.54686803 19.9390167 21.5116938
538 4 0.0 14.54686803 6.40371987 4.83104277
539 4 0.0 11.79586854 19.9390167 4.83104277
540 4 0.0 11.79586854 6.40371987 21.5116938
541 4 0.0 21.5116938 19.57469301 24.96763197
542 4 0.0 4.83104277 6.76804356 24.96763197
543 4 0.0 4.83104277 19.57469301 1.3751046
544 4 0.0 21.5116938 6.76804356 1.3751046
545 4 0.0 11.79586854 21.5116938 6.40371987
546 4 0.0 11.79586854 4.83104277 19.9390167
547 4 0.0 14.54686803 4.83104277 6.40371987
548 4 0.0 14.54686803 21.5116938 19.9390167
549 4 0.0 19.57469301 11.79586854 8.33993037
550 4 0.0 6.76804356 11.79586854 18.0028062
551 4 0.0 19.57469301 14.54686803 18.0028062
552 4 0.0 6.76804356 14.54686803 8.33993037
553 4 0.0 19.57469301 21.5116938 1.3751046
554 4 0.0 6.76804356 4.83104277 1.3751046
555 4 0.0 19.57469301 4.83104277 24.96763197
556 4 0.0 6.76804356 21.5116938 24.96763197
557 4 0.0 21.5116938 11.79586854 19.9390167
558 4 0.0 4.83104277 11.79586854 6.40371987
559 4 0.0 4.83104277 14.54686803 19.9390167
560 4 0.0 21.5116938 14.54686803 6.40371987
561 4 0.0 11.79586854 19.57469301 18.0028062
562 4 0.0 11.79586854 6.76804356 8.33993037
563 4 0.0 14.54686803 19.57469301 8.33993037
564 4 0.0 14.54686803 6.76804356 18.0028062
565 4 0.0 4.83104277 6.76804356 1.3751046
566 4 0.0 21.5116938 19.57469301 1.3751046
567 4 0.0 21.5116938 6.76804356 24.96763197
568 4 0.0 4.83104277 19.57469301 24.96763197
569 4 0.0 14.54686803 4.83104277 19.9390167
570 4 0.0 14.54686803 21.5116938 6.40371987
571 4 0.0 11.79586854 21.5116938 19.9390167
572 4 0.0 11.79586854 4.83104277 6.40371987
573 4 0.0 6.76804356 14.54686803 18.0028062
574 4 0.0 19.57469301 14.54686803 8.33993037
575 4 0.0 6.76804356 11.79586854 8.33993037
576 4 0.0 19.57469301 11.79586854 18.0028062
577 4 0.0 6.76804356 4.83104277 24.96763197
578 4 0.0 19.57469301 21.5116938 24.96763197
579 4 0.0 6.76804356 21.5116938 1.3751046
580 4 0.0 19.57469301 4.83104277 1.3751046
581 4 0.0 4.83104277 14.54686803 6.40371987
582 4 0.0 21.5116938 14.54686803 19.9390167
583 4 0.0 21.5116938 11.79586854 6.40371987
584 4 0.0 4.83104277 11.79586854 19.9390167
585 4 0.0 14.54686803 6.76804356 8.33993037
586 4 0.0 14.54686803 19.57469301 18.0028062
587 4 0.0 11.79586854 6.76804356 18.0028062
588 4 0.0 11.79586854 19.57469301 8.33993037
589 1 0.0 44.20408086 21.653946 23.36571414
590 1 0.0 44.20408086 4.68879057 2.97702243
591 1 0.0 34.82491914 21.653946 2.97702243
592 1 0.0 49.709241 17.86134429 21.653946
593 1 0.0 29.319759 17.86134429 4.68879057
594 1 0.0 29.319759 8.48218257 21.653946
595 1 0.0 31.03231743 23.36571414 8.48218257
596 1 0.0 31.03231743 2.97702243 17.86134429
597 1 0.0 47.99668257 2.97702243 8.48218257
598 1 0.0 31.03231743 8.48218257 2.97702243
599 1 0.0 47.99668257 17.86134429 2.97702243
600 1 0.0 31.03231743 17.86134429 23.36571414
601 1 0.0 47.99668257 8.48218257 23.36571414
602 1 0.0 34.82491914 23.36571414 21.653946
603 1 0.0 44.20408086 23.36571414 4.68879057
604 1 0.0 34.82491914 2.97702243 4.68879057
605 1 0.0 49.709241 4.68879057 17.86134429
606 1 0.0 49.709241 21.653946 8.48218257
607 1 0.0 29.319759 4.68879057 8.48218257
608 1 0.0 29.319759 21.653946 17.86134429
609 1 0.0 44.20408086 21.653946 2.97702243
610 1 0.0 34.82491914 4.68879057 2.97702243
611 1 0.0 34.82491914 21.653946 23.36571414
612 1 0.0 29.319759 17.86134429 21.653946
613 1 0.0 29.319759 8.48218257 4.68879057
614 1 0.0 49.709241 8.48218257 21.653946
615 1 0.0 49.709241 17.86134429 4.68879057
616 1 0.0 47.99668257 2.97702243 17.86134429
617 1 0.0 31.03231743 2.97702243 8.48218257
618 1 0.0 47.99668257 23.36571414 8.48218257
619 1 0.0 31.03231743 23.36571414 17.86134429
620 1 0.0 47.99668257 17.86134429 23.36571414
621 1 0.0 31.03231743 8.48218257 23.36571414
622 1 0.0 31.03231743 17.86134429 2.97702243
623 1 0.0 44.20408086 2.97702243 4.68879057
624 1 0.0 34.82491914 23.36571414 4.68879057
625 1 0.0 44.20408086 23.36571414 21.653946
626 1 0.0 29.319759 21.653946 8.48218257
627 1 0.0 29.319759 4.68879057 17.86134429
628 1 0.0 49.709241 4.68879057 8.48218257
629 1 0.0 34.82491914 17.86134429 10.194741
630 1 0.0 34.82491914 8.48218257 16.14799557
631 1 0.0 31.03231743 10.194741 21.653946
632 1 0.0 31.03231743 16.14799557 4.68879057
633 1 0.0 47.99668257 16.14799557 21.653946
634 1 0.0 31.03231743 21.653946 16.14799557
635 1 0.0 47.99668257 4.68879057 16.14799557
636 1 0.0 31.03231743 4.68879057 10.194741
637 1 0.0 47.99668257 21.653946 10.194741
638 1 0.0 44.20408086 16.14799557 8.48218257
639 1 0.0 34.82491914 16.14799557 17.86134429
640 1 0.0 34.82491914 17.86134429 16.14799557
641 1 0.0 44.20408086 17.86134429 10.194741
642 1 0.0 47.99668257 16.14799557 4.68879057
643 1 0.0 31.03231743 16.14799557 21.653946
644 1 0.0 47.99668257 10.194741 21.653946
645 1 0.0 31.03231743 10.194741 4.68879057
646 1 0.0 47.99668257 4.68879057 10.194741
647 1 0.0 31.03231743 21.653946 10.194741
648 1 0.0 31.03231743 4.68879057 16.14799557
649 1 0.0 34.82491914 16.14799557 8.48218257
650 1 0.0 34.82491914 10.194741 17.86134429
651 1 0.0 36.53826786 8.48218257 17.86134429
652 1 0.0 36.53826786 17.86134429 8.48218257
653 1 0.0 36.53826786 4.68879057 4.68879057
654 1 0.0 36.53826786 21.653946 21.653946
655 1 0.0 42.49073214 21.653946 4.68879057
656 1 0.0 42.49073214 17.86134429 8.48218257
657 1 0.0 36.53826786 17.86134429 17.86134429
658 1 0.0 42.49073214 21.653946 21.653946
659 1 0.0 42.49073214 4.68879057 4.68879057
660 1 0.0 36.53826786 21.653946 4.68879057
661 1 0.0 34.16186583 5.35263417 24.53297247
662 1 0.0 44.86713417 20.9901024 24.53297247
663 1 0.0 44.86713417 5.35263417 1.8097641
664 1 0.0 34.16186583 20.9901024 1.8097641
665 1 0.0 50.87570904 7.81912926 5.35263417
666 1 0.0 50.87570904 18.5243976 20.9901024
667 1 0.0 28.15329096 18.5243976 5.35263417
668 1 0.0 28.15329096 7.81912926 20.9901024
669 1 0.0 31.69616103 24.53297247 7.81912926
670 1 0.0 47.33283897 24.53297247 18.5243976
671 1 0.0 31.69616103 1.8097641 18.5243976
672 1 0.0 47.33283897 1.8097641 7.81912926
673 1 0.0 31.69616103 7.81912926 1.8097641