# LAMMPS data file written by OVITO Basic 3.5.4
15618 atoms
4 atom types
0.0 79.029 xlo xhi
0.0 79.029 ylo yhi
0.0 79.029 zlo zhi
0.00000 0.00000 0.0000 xy xz yz

Masses

1 12.0107  # C
2 63.546  # Cu
3 1.00794  # H
4 15.9994  # O

Atoms  # charge

1 1 0.0 8.48218257 4.68879057 23.36571414
2 1 0.0 17.86134429 4.68879057 2.97702243
3 1 0.0 8.48218257 21.653946 2.97702243
4 1 0.0 23.36571414 17.86134429 21.653946
5 1 0.0 2.97702243 17.86134429 4.68879057
6 1 0.0 2.97702243 8.48218257 21.653946
7 1 0.0 21.653946 23.36571414 17.86134429
8 1 0.0 4.68879057 2.97702243 17.86134429
9 1 0.0 21.653946 2.97702243 8.48218257
10 1 0.0 4.68879057 8.48218257 2.97702243
11 1 0.0 21.653946 17.86134429 2.97702243
12 1 0.0 4.68879057 17.86134429 23.36571414
13 1 0.0 21.653946 8.48218257 23.36571414
14 1 0.0 8.48218257 23.36571414 21.653946
15 1 0.0 17.86134429 23.36571414 4.68879057
16 1 0.0 8.48218257 2.97702243 4.68879057
17 1 0.0 23.36571414 4.68879057 17.86134429
18 1 0.0 2.97702243 4.68879057 8.48218257
19 1 0.0 2.97702243 21.653946 17.86134429
20 1 0.0 17.86134429 21.653946 2.97702243
21 1 0.0 8.48218257 4.68879057 2.97702243
22 1 0.0 8.48218257 21.653946 23.36571414
23 1 0.0 2.97702243 17.86134429 21.653946
24 1 0.0 2.97702243 8.48218257 4.68879057
25 1 0.0 23.36571414 8.48218257 21.653946
26 1 0.0 23.36571414 17.86134429 4.68879057
27 1 0.0 21.653946 2.97702243 17.86134429
28 1 0.0 4.68879057 2.97702243 8.48218257
29 1 0.0 4.68879057 23.36571414 17.86134429
30 1 0.0 21.653946 17.86134429 23.36571414
31 1 0.0 4.68879057 8.48218257 23.36571414
32 1 0.0 4.68879057 17.86134429 2.97702243
33 1 0.0 17.86134429 2.97702243 4.68879057
34 1 0.0 8.48218257 2.97702243 21.653946
35 1 0.0 8.48218257 23.36571414 4.68879057
36 1 0.0 2.97702243 4.68879057 17.86134429
37 1 0.0 23.36571414 21.653946 17.86134429
38 1 0.0 23.36571414 4.68879057 8.48218257
39 1 0.0 17.86134429 17.86134429 16.14799557
40 1 0.0 8.48218257 8.48218257 16.14799557
41 1 0.0 4.68879057 10.194741 21.653946
42 1 0.0 4.68879057 16.14799557 4.68879057
43 1 0.0 21.653946 16.14799557 21.653946
44 1 0.0 4.68879057 21.653946 16.14799557
45 1 0.0 21.653946 4.68879057 16.14799557
46 1 0.0 4.68879057 4.68879057 10.194741
47 1 0.0 17.86134429 10.194741 17.86134429
48 1 0.0 17.86134429 16.14799557 8.48218257
49 1 0.0 17.86134429 8.48218257 16.14799557
50 1 0.0 17.86134429 17.86134429 10.194741
51 1 0.0 21.653946 16.14799557 4.68879057
52 1 0.0 4.68879057 16.14799557 21.653946
53 1 0.0 21.653946 10.194741 21.653946
54 1 0.0 4.68879057 10.194741 4.68879057
55 1 0.0 21.653946 4.68879057 10.194741
56 1 0.0 21.653946 21.653946 16.14799557
57 1 0.0 4.68879057 4.68879057 16.14799557
58 1 0.0 17.86134429 16.14799557 17.86134429
59 1 0.0 8.48218257 10.194741 17.86134429
60 1 0.0 10.194741 8.48218257 17.86134429
61 1 0.0 16.14799557 17.86134429 17.86134429
62 1 0.0 10.194741 4.68879057 4.68879057
63 1 0.0 10.194741 21.653946 21.653946
64 1 0.0 16.14799557 21.653946 4.68879057
65 1 0.0 16.14799557 17.86134429 8.48218257
66 1 0.0 16.14799557 8.48218257 17.86134429
67 1 0.0 16.14799557 4.68879057 4.68879057
68 1 0.0 10.194741 21.653946 4.68879057
69 1 0.0 10.194741 4.68879057 21.653946
70 1 0.0 7.81912926 5.35263417 24.53297247
71 1 0.0 18.5243976 20.9901024 24.53297247
72 1 0.0 18.5243976 5.35263417 1.8097641
73 1 0.0 7.81912926 20.9901024 1.8097641
74 1 0.0 24.53297247 7.81912926 5.35263417
75 1 0.0 24.53297247 18.5243976 20.9901024
76 1 0.0 1.8097641 18.5243976 5.35263417
77 1 0.0 1.8097641 7.81912926 20.9901024
78 1 0.0 5.35263417 24.53297247 7.81912926
79 1 0.0 20.9901024 24.53297247 18.5243976
80 1 0.0 5.35263417 1.8097641 18.5243976
81 1 0.0 20.9901024 1.8097641 7.81912926
82 1 0.0 5.35263417 7.81912926 1.8097641
83 1 0.0 20.9901024 18.5243976 1.8097641
84 1 0.0 5.35263417 18.5243976 24.53297247
85 1 0.0 20.9901024 7.81912926 24.53297247
86 1 0.0 7.81912926 24.53297247 20.9901024
87 1 0.0 18.5243976 24.53297247 5.35263417
88 1 0.0 18.5243976 1.8097641 20.9901024
89 1 0.0 7.81912926 1.8097641 5.35263417
90 1 0.0 24.53297247 5.35263417 18.5243976
91 1 0.0 24.53297247 20.9901024 7.81912926
92 1 0.0 1.8097641 5.35263417 7.81912926
93 1 0.0 1.8097641 20.9901024 18.5243976
94 1 0.0 18.5243976 20.9901024 1.8097641
95 1 0.0 7.81912926 5.35263417 1.8097641
96 1 0.0 7.81912926 20.9901024 24.53297247
97 1 0.0 18.5243976 5.35263417 24.53297247
98 1 0.0 1.8097641 18.5243976 20.9901024
99 1 0.0 1.8097641 7.81912926 5.35263417
100 1 0.0 24.53297247 7.81912926 20.9901024
101 1 0.0 24.53297247 18.5243976 5.35263417
102 1 0.0 20.9901024 1.8097641 18.5243976
103 1 0.0 5.35263417 1.8097641 7.81912926
104 1 0.0 20.9901024 24.53297247 7.81912926
105 1 0.0 5.35263417 24.53297247 18.5243976
106 1 0.0 20.9901024 18.5243976 24.53297247
107 1 0.0 5.35263417 7.81912926 24.53297247
108 1 0.0 20.9901024 7.81912926 1.8097641
109 1 0.0 5.35263417 18.5243976 1.8097641
110 1 0.0 18.5243976 1.8097641 5.35263417
111 1 0.0 7.81912926 1.8097641 20.9901024
112 1 0.0 7.81912926 24.53297247 5.35263417
113 1 0.0 18.5243976 24.53297247 20.9901024
114 1 0.0 1.8097641 20.9901024 7.81912926
115 1 0.0 1.8097641 5.35263417 18.5243976
116 1 0.0 24.53297247 20.9901024 18.5243976
117 1 0.0 24.53297247 5.35263417 7.81912926
118 1 0.0 7.81912926 18.5243976 11.36199933
119 1 0.0 18.5243976 7.81912926 11.36199933
120 1 0.0 18.5243976 18.5243976 14.98073724
121 1 0.0 7.81912926 7.81912926 14.98073724
122 1 0.0 5.35263417 11.36199933 20.9901024
123 1 0.0 20.9901024 11.36199933 5.35263417
124 1 0.0 5.35263417 14.98073724 5.35263417
125 1 0.0 20.9901024 14.98073724 20.9901024
126 1 0.0 5.35263417 20.9901024 14.98073724
127 1 0.0 20.9901024 5.35263417 14.98073724
128 1 0.0 5.35263417 5.35263417 11.36199933
129 1 0.0 20.9901024 20.9901024 11.36199933
130 1 0.0 7.81912926 11.36199933 7.81912926
131 1 0.0 18.5243976 11.36199933 18.5243976
132 1 0.0 18.5243976 14.98073724 7.81912926
133 1 0.0 7.81912926 14.98073724 18.5243976
134 1 0.0 18.5243976 7.81912926 14.98073724
135 1 0.0 7.81912926 18.5243976 14.98073724
136 1 0.0 7.81912926 7.81912926 11.36199933
137 1 0.0 18.5243976 18.5243976 11.36199933
138 1 0.0 20.9901024 14.98073724 5.35263417
139 1 0.0 5.35263417 14.98073724 20.9901024
140 1 0.0 20.9901024 11.36199933 20.9901024
141 1 0.0 5.35263417 11.36199933 5.35263417
142 1 0.0 20.9901024 5.35263417 11.36199933
143 1 0.0 5.35263417 20.9901024 11.36199933
144 1 0.0 20.9901024 20.9901024 14.98073724
145 1 0.0 5.35263417 5.35263417 14.98073724
146 1 0.0 18.5243976 14.98073724 18.5243976
147 1 0.0 7.81912926 14.98073724 7.81912926
148 1 0.0 7.81912926 11.36199933 18.5243976
149 1 0.0 18.5243976 11.36199933 7.81912926
150 1 0.0 11.36199933 7.81912926 18.5243976
151 1 0.0 11.36199933 18.5243976 7.81912926
152 1 0.0 14.98073724 18.5243976 18.5243976
153 1 0.0 14.98073724 7.81912926 7.81912926
154 1 0.0 11.36199933 5.35263417 5.35263417
155 1 0.0 11.36199933 20.9901024 20.9901024
156 1 0.0 14.98073724 5.35263417 20.9901024
157 1 0.0 14.98073724 20.9901024 5.35263417
158 1 0.0 14.98073724 18.5243976 7.81912926
159 1 0.0 14.98073724 7.81912926 18.5243976
160 1 0.0 11.36199933 7.81912926 7.81912926
161 1 0.0 11.36199933 18.5243976 18.5243976
162 1 0.0 14.98073724 20.9901024 20.9901024
163 1 0.0 14.98073724 5.35263417 5.35263417
164 1 0.0 11.36199933 20.9901024 5.35263417
165 1 0.0 11.36199933 5.35263417 20.9901024
166 1 0.0 9.62810307 5.25305763 22.7998665
167 1 0.0 16.7146335 5.25305763 3.54287007
168 1 0.0 9.62810307 21.08967894 3.54287007
169 1 0.0 22.7998665 16.7146335 21.08967894
170 1 0.0 3.54287007 16.7146335 5.25305763
171 1 0.0 3.54287007 9.62810307 21.08967894
172 1 0.0 21.08967894 22.7998665 16.7146335
173 1 0.0 5.25305763 3.54287007 16.7146335
174 1 0.0 21.08967894 3.54287007 9.62810307
175 1 0.0 5.25305763 9.62810307 3.54287007
176 1 0.0 21.08967894 16.7146335 3.54287007
177 1 0.0 5.25305763 16.7146335 22.7998665
178 1 0.0 21.08967894 9.62810307 22.7998665
179 1 0.0 9.62810307 22.7998665 21.08967894
180 1 0.0 16.7146335 22.7998665 5.25305763
181 1 0.0 9.62810307 3.54287007 5.25305763
182 1 0.0 22.7998665 5.25305763 16.7146335
183 1 0.0 3.54287007 5.25305763 9.62810307
184 1 0.0 3.54287007 21.08967894 16.7146335
185 1 0.0 16.7146335 21.08967894 3.54287007
186 1 0.0 9.62810307 5.25305763 3.54287007
187 1 0.0 9.62810307 21.08967894 22.7998665
188 1 0.0 3.54287007 16.7146335 21.08967894
189 1 0.0 3.54287007 9.62810307 5.25305763
190 1 0.0 22.7998665 9.62810307 21.08967894
191 1 0.0 22.7998665 16.7146335 5.25305763
192 1 0.0 21.08967894 3.54287007 16.7146335
193 1 0.0 5.25305763 3.54287007 9.62810307
194 1 0.0 5.25305763 22.7998665 16.7146335
195 1 0.0 21.08967894 16.7146335 22.7998665
196 1 0.0 5.25305763 9.62810307 22.7998665
197 1 0.0 5.25305763 16.7146335 3.54287007
198 1 0.0 16.7146335 3.54287007 5.25305763
199 1 0.0 9.62810307 3.54287007 21.08967894
200 1 0.0 9.62810307 22.7998665 5.25305763
201 1 0.0 3.54287007 5.25305763 16.7146335
202 1 0.0 22.7998665 21.08967894 16.7146335
203 1 0.0 22.7998665 5.25305763 9.62810307
204 1 0.0 16.7146335 18.42403077 16.7146335
205 1 0.0 9.62810307 7.9187058 16.7146335
206 1 0.0 22.7998665 22.7998665 18.42403077
207 1 0.0 22.7998665 3.54287007 7.9187058
208 1 0.0 3.54287007 3.54287007 18.42403077
209 1 0.0 16.7146335 9.62810307 18.42403077
210 1 0.0 16.7146335 16.7146335 7.9187058
211 1 0.0 22.7998665 18.42403077 3.54287007
212 1 0.0 22.7998665 7.9187058 22.7998665
213 1 0.0 3.54287007 18.42403077 22.7998665
214 1 0.0 3.54287007 7.9187058 3.54287007
215 1 0.0 16.7146335 7.9187058 16.7146335
216 1 0.0 16.7146335 18.42403077 9.62810307
217 1 0.0 3.54287007 3.54287007 7.9187058
218 1 0.0 3.54287007 22.7998665 18.42403077
219 1 0.0 22.7998665 3.54287007 18.42403077
220 1 0.0 16.7146335 16.7146335 18.42403077
221 1 0.0 9.62810307 9.62810307 18.42403077
222 1 0.0 3.54287007 7.9187058 22.7998665
223 1 0.0 3.54287007 18.42403077 3.54287007
224 1 0.0 22.7998665 18.42403077 22.7998665
225 1 0.0 7.9187058 22.7998665 3.54287007
226 1 0.0 18.42403077 3.54287007 3.54287007
227 1 0.0 7.9187058 3.54287007 22.7998665
228 1 0.0 18.42403077 9.62810307 16.7146335
229 1 0.0 18.42403077 16.7146335 9.62810307
230 1 0.0 7.9187058 3.54287007 3.54287007
231 1 0.0 7.9187058 22.7998665 22.7998665
232 1 0.0 18.42403077 22.7998665 3.54287007
233 1 0.0 7.9187058 9.62810307 16.7146335
234 1 0.0 18.42403077 16.7146335 16.7146335
235 2 0.0 7.5156579 7.5156579 0.0
236 2 0.0 18.82707867 18.82707867 0.0
237 2 0.0 18.82707867 7.5156579 0.0
238 2 0.0 7.5156579 18.82707867 0.0
239 2 0.0 0.0 7.5156579 7.5156579
240 2 0.0 0.0 18.82707867 18.82707867
241 2 0.0 0.0 18.82707867 7.5156579
242 2 0.0 0.0 7.5156579 18.82707867
243 2 0.0 7.5156579 0.0 7.5156579
244 2 0.0 18.82707867 0.0 18.82707867
245 2 0.0 7.5156579 0.0 18.82707867
246 2 0.0 18.82707867 0.0 7.5156579
247 2 0.0 7.5156579 20.68663104 13.17176343
248 2 0.0 18.82707867 5.65610553 13.17176343
249 2 0.0 18.82707867 20.68663104 13.17176343
250 2 0.0 7.5156579 5.65610553 13.17176343
251 2 0.0 0.0 20.68663104 20.68663104
252 2 0.0 0.0 5.65610553 5.65610553
253 2 0.0 0.0 5.65610553 20.68663104
254 2 0.0 0.0 20.68663104 5.65610553
255 2 0.0 7.5156579 13.17176343 20.68663104
256 2 0.0 18.82707867 13.17176343 5.65610553
257 2 0.0 7.5156579 13.17176343 5.65610553
258 2 0.0 18.82707867 13.17176343 20.68663104
259 2 0.0 20.68663104 7.5156579 13.17176343
260 2 0.0 5.65610553 18.82707867 13.17176343
261 2 0.0 5.65610553 7.5156579 13.17176343
262 2 0.0 20.68663104 18.82707867 13.17176343
263 2 0.0 13.17176343 7.5156579 20.68663104
264 2 0.0 13.17176343 18.82707867 5.65610553
265 2 0.0 13.17176343 18.82707867 20.68663104
266 2 0.0 13.17176343 7.5156579 5.65610553
267 2 0.0 20.68663104 0.0 20.68663104
268 2 0.0 5.65610553 0.0 5.65610553
269 2 0.0 20.68663104 0.0 5.65610553
270 2 0.0 5.65610553 0.0 20.68663104
271 2 0.0 20.68663104 20.68663104 0.0
272 2 0.0 5.65610553 5.65610553 0.0
273 2 0.0 5.65610553 20.68663104 0.0
274 2 0.0 20.68663104 5.65610553 0.0
275 2 0.0 13.17176343 20.68663104 7.5156579
276 2 0.0 13.17176343 5.65610553 18.82707867
277 2 0.0 13.17176343 5.65610553 7.5156579
278 2 0.0 13.17176343 20.68663104 18.82707867
279 2 0.0 20.68663104 13.17176343 7.5156579
280 2 0.0 5.65610553 13.17176343 18.82707867
281 2 0.0 20.68663104 13.17176343 18.82707867
282 2 0.0 5.65610553 13.17176343 7.5156579
283 3 0.0 10.01613546 6.006204 23.1871086
284 3 0.0 16.3273914 6.006204 3.15562797
285 3 0.0 10.01613546 20.33732286 3.15562797
286 3 0.0 23.1871086 16.3273914 20.33732286
287 3 0.0 3.15562797 16.3273914 6.006204
288 3 0.0 3.15562797 10.01613546 20.33732286
289 3 0.0 20.33732286 23.1871086 16.3273914
290 3 0.0 6.006204 3.15562797 16.3273914
291 3 0.0 20.33732286 3.15562797 10.01613546
292 3 0.0 6.006204 10.01613546 3.15562797
293 3 0.0 20.33732286 16.3273914 3.15562797
294 3 0.0 6.006204 16.3273914 23.1871086
295 3 0.0 20.33732286 10.01613546 23.1871086
296 3 0.0 10.01613546 23.1871086 20.33732286
297 3 0.0 16.3273914 23.1871086 6.006204
298 3 0.0 10.01613546 3.15562797 6.006204
299 3 0.0 23.1871086 6.006204 16.3273914
300 3 0.0 3.15562797 6.006204 10.01613546
301 3 0.0 3.15562797 20.33732286 16.3273914
302 3 0.0 16.3273914 20.33732286 3.15562797
303 3 0.0 10.01613546 6.006204 3.15562797
304 3 0.0 10.01613546 20.33732286 23.1871086
305 3 0.0 3.15562797 16.3273914 20.33732286
306 3 0.0 3.15562797 10.01613546 6.006204
307 3 0.0 23.1871086 10.01613546 20.33732286
308 3 0.0 23.1871086 16.3273914 6.006204
309 3 0.0 20.33732286 3.15562797 16.3273914
310 3 0.0 6.006204 3.15562797 10.01613546
311 3 0.0 6.006204 23.1871086 16.3273914
312 3 0.0 20.33732286 16.3273914 23.1871086
313 3 0.0 6.006204 10.01613546 23.1871086
314 3 0.0 6.006204 16.3273914 3.15562797
315 3 0.0 16.3273914 3.15562797 6.006204
316 3 0.0 10.01613546 3.15562797 20.33732286
317 3 0.0 10.01613546 23.1871086 6.006204
318 3 0.0 3.15562797 6.006204 16.3273914
319 3 0.0 23.1871086 20.33732286 16.3273914
320 3 0.0 23.1871086 6.006204 10.01613546
321 3 0.0 16.3273914 19.17796743 16.3273914
322 3 0.0 10.01613546 7.16476914 16.3273914
323 3 0.0 23.1871086 23.1871086 19.17796743
324 3 0.0 23.1871086 3.15562797 7.16476914
325 3 0.0 3.15562797 3.15562797 19.17796743
326 3 0.0 16.3273914 10.01613546 19.17796743
327 3 0.0 16.3273914 16.3273914 7.16476914
328 3 0.0 23.1871086 19.17796743 3.15562797
329 3 0.0 23.1871086 7.16476914 23.1871086
330 3 0.0 3.15562797 19.17796743 23.1871086
331 3 0.0 3.15562797 7.16476914 3.15562797
332 3 0.0 16.3273914 7.16476914 16.3273914
333 3 0.0 16.3273914 19.17796743 10.01613546
334 3 0.0 3.15562797 3.15562797 7.16476914
335 3 0.0 3.15562797 23.1871086 19.17796743
336 3 0.0 23.1871086 3.15562797 19.17796743
337 3 0.0 16.3273914 16.3273914 19.17796743
338 3 0.0 10.01613546 10.01613546 19.17796743
339 3 0.0 3.15562797 7.16476914 23.1871086
340 3 0.0 3.15562797 19.17796743 3.15562797
341 3 0.0 23.1871086 19.17796743 23.1871086
342 3 0.0 7.16476914 23.1871086 3.15562797
343 3 0.0 19.17796743 3.15562797 3.15562797
344 3 0.0 7.16476914 3.15562797 23.1871086
345 3 0.0 19.17796743 10.01613546 16.3273914
346 3 0.0 19.17796743 16.3273914 10.01613546
347 3 0.0 7.16476914 3.15562797 3.15562797
348 3 0.0 7.16476914 23.1871086 23.1871086
349 3 0.0 19.17796743 23.1871086 3.15562797
350 3 0.0 7.16476914 10.01613546 16.3273914
351 3 0.0 19.17796743 16.3273914 16.3273914
352 4 0.0 8.33993037 6.40371987 24.96763197
353 4 0.0 18.0028062 19.9390167 24.96763197
354 4 0.0 18.0028062 6.40371987 1.3751046
355 4 0.0 8.33993037 19.9390167 1.3751046
356 4 0.0 24.96763197 8.33993037 6.40371987
357 4 0.0 24.96763197 18.0028062 19.9390167
358 4 0.0 1.3751046 18.0028062 6.40371987
359 4 0.0 1.3751046 8.33993037 19.9390167
360 4 0.0 6.40371987 24.96763197 8.33993037
361 4 0.0 19.9390167 24.96763197 18.0028062
362 4 0.0 6.40371987 1.3751046 18.0028062
363 4 0.0 19.9390167 1.3751046 8.33993037
364 4 0.0 6.40371987 8.33993037 1.3751046
365 4 0.0 19.9390167 18.0028062 1.3751046
366 4 0.0 6.40371987 18.0028062 24.96763197
367 4 0.0 19.9390167 8.33993037 24.96763197
368 4 0.0 8.33993037 24.96763197 19.9390167
369 4 0.0 18.0028062 24.96763197 6.40371987
370 4 0.0 18.0028062 1.3751046 19.9390167
371 4 0.0 8.33993037 1.3751046 6.40371987
372 4 0.0 24.96763197 6.40371987 18.0028062
373 4 0.0 24.96763197 19.9390167 8.33993037
374 4 0.0 1.3751046 6.40371987 8.33993037
375 4 0.0 1.3751046 19.9390167 18.0028062
376 4 0.0 18.0028062 19.9390167 1.3751046
377 4 0.0 8.33993037 6.40371987 1.3751046
378 4 0.0 8.33993037 19.9390167 24.96763197
379 4 0.0 18.0028062 6.40371987 24.96763197
380 4 0.0 1.3751046 18.0028062 19.9390167
381 4 0.0 1.3751046 8.33993037 6.40371987
382 4 0.0 24.96763197 8.33993037 19.9390167
383 4 0.0 24.96763197 18.0028062 6.40371987
384 4 0.0 19.9390167 1.3751046 18.0028062
385 4 0.0 6.40371987 1.3751046 8.33993037
386 4 0.0 19.9390167 24.96763197 8.33993037
387 4 0.0 6.40371987 24.96763197 18.0028062
388 4 0.0 19.9390167 18.0028062 24.96763197
389 4 0.0 6.40371987 8.33993037 24.96763197
390 4 0.0 19.9390167 8.33993037 1.3751046
391 4 0.0 6.40371987 18.0028062 1.3751046
392 4 0.0 18.0028062 1.3751046 6.40371987
393 4 0.0 8.33993037 1.3751046 19.9390167
394 4 0.0 8.33993037 24.96763197 6.40371987
395 4 0.0 18.0028062 24.96763197 19.9390167
396 4 0.0 1.3751046 19.9390167 8.33993037
397 4 0.0 1.3751046 6.40371987 18.0028062
398 4 0.0 24.96763197 19.9390167 18.0028062
399 4 0.0 24.96763197 6.40371987 8.33993037
400 4 0.0 8.33993037 19.57469301 11.79586854
401 4 0.0 18.0028062 6.76804356 11.79586854
402 4 0.0 18.0028062 19.57469301 14.54686803
403 4 0.0 8.33993037 6.76804356 14.54686803
404 4 0.0 24.96763197 21.5116938 19.57469301
405 4 0.0 24.96763197 4.83104277 6.76804356
406 4 0.0 1.3751046 4.83104277 19.57469301
407 4 0.0 1.3751046 21.5116938 6.76804356
408 4 0.0 6.40371987 11.79586854 21.5116938
409 4 0.0 19.9390167 11.79586854 4.83104277
410 4 0.0 6.40371987 14.54686803 4.83104277
411 4 0.0 19.9390167 14.54686803 21.5116938
412 4 0.0 6.40371987 21.5116938 14.54686803
413 4 0.0 19.9390167 4.83104277 14.54686803
414 4 0.0 6.40371987 4.83104277 11.79586854
415 4 0.0 19.9390167 21.5116938 11.79586854
416 4 0.0 8.33993037 11.79586854 6.76804356
417 4 0.0 18.0028062 11.79586854 19.57469301
418 4 0.0 18.0028062 14.54686803 6.76804356
419 4 0.0 8.33993037 14.54686803 19.57469301
420 4 0.0 24.96763197 19.57469301 4.83104277
421 4 0.0 24.96763197 6.76804356 21.5116938
422 4 0.0 1.3751046 19.57469301 21.5116938
423 4 0.0 1.3751046 6.76804356 4.83104277
424 4 0.0 18.0028062 6.76804356 14.54686803
425 4 0.0 8.33993037 19.57469301 14.54686803
426 4 0.0 8.33993037 6.76804356 11.79586854
427 4 0.0 18.0028062 19.57469301 11.79586854
428 4 0.0 1.3751046 4.83104277 6.76804356
429 4 0.0 1.3751046 21.5116938 19.57469301
430 4 0.0 24.96763197 21.5116938 6.76804356
431 4 0.0 24.96763197 4.83104277 19.57469301
432 4 0.0 19.9390167 14.54686803 4.83104277
433 4 0.0 6.40371987 14.54686803 21.5116938
434 4 0.0 19.9390167 11.79586854 21.5116938
435 4 0.0 6.40371987 11.79586854 4.83104277
436 4 0.0 19.9390167 4.83104277 11.79586854
437 4 0.0 6.40371987 21.5116938 11.79586854
438 4 0.0 19.9390167 21.5116938 14.54686803
439 4 0.0 6.40371987 4.83104277 14.54686803
440 4 0.0 18.0028062 14.54686803 19.57469301
441 4 0.0 8.33993037 14.54686803 6.76804356
442 4 0.0 8.33993037 11.79586854 19.57469301
443 4 0.0 18.0028062 11.79586854 6.76804356
444 4 0.0 1.3751046 6.76804356 21.5116938
445 4 0.0 1.3751046 19.57469301 4.83104277
446 4 0.0 24.96763197 6.76804356 4.83104277
447 4 0.0 24.96763197 19.57469301 21.5116938
448 4 0.0 21.5116938 6.40371987 11.79586854
449 4 0.0 4.83104277 19.9390167 11.79586854
450 4 0.0 4.83104277 6.40371987 14.54686803
451 4 0.0 21.5116938 19.9390167 14.54686803
452 4 0.0 11.79586854 8.33993037 19.57469301
453 4 0.0 11.79586854 18.0028062 6.76804356
454 4 0.0 14.54686803 18.0028062 19.57469301
455 4 0.0 14.54686803 8.33993037 6.76804356
456 4 0.0 19.57469301 24.96763197 21.5116938
457 4 0.0 6.76804356 24.96763197 4.83104277
458 4 0.0 19.57469301 1.3751046 4.83104277
459 4 0.0 6.76804356 1.3751046 21.5116938
460 4 0.0 19.57469301 8.33993037 14.54686803
461 4 0.0 6.76804356 18.0028062 14.54686803
462 4 0.0 19.57469301 18.0028062 11.79586854
463 4 0.0 6.76804356 8.33993037 11.79586854
464 4 0.0 21.5116938 24.96763197 6.76804356
465 4 0.0 4.83104277 24.96763197 19.57469301
466 4 0.0 4.83104277 1.3751046 6.76804356
467 4 0.0 21.5116938 1.3751046 19.57469301
468 4 0.0 11.79586854 6.40371987 4.83104277
469 4 0.0 11.79586854 19.9390167 21.5116938
470 4 0.0 14.54686803 6.40371987 21.5116938
471 4 0.0 14.54686803 19.9390167 4.83104277
472 4 0.0 4.83104277 19.9390167 14.54686803
473 4 0.0 21.5116938 6.40371987 14.54686803
474 4 0.0 21.5116938 19.9390167 11.79586854
475 4 0.0 4.83104277 6.40371987 11.79586854
476 4 0.0 14.54686803 18.0028062 6.76804356
477 4 0.0 14.54686803 8.33993037 19.57469301
478 4 0.0 11.79586854 8.33993037 6.76804356
479 4 0.0 11.79586854 18.0028062 19.57469301
480 4 0.0 6.76804356 1.3751046 4.83104277
481 4 0.0 19.57469301 1.3751046 21.5116938
482 4 0.0 6.76804356 24.96763197 21.5116938
483 4 0.0 19.57469301 24.96763197 4.83104277
484 4 0.0 6.76804356 18.0028062 11.79586854
485 4 0.0 19.57469301 8.33993037 11.79586854
486 4 0.0 6.76804356 8.33993037 14.54686803
487 4 0.0 19.57469301 18.0028062 14.54686803
488 4 0.0 4.83104277 1.3751046 19.57469301
489 4 0.0 21.5116938 1.3751046 6.76804356
490 4 0.0 21.5116938 24.96763197 19.57469301
491 4 0.0 4.83104277 24.96763197 6.76804356
492 4 0.0 14.54686803 19.9390167 21.5116938
493 4 0.0 14.54686803 6.40371987 4.83104277
494 4 0.0 11.79586854 19.9390167 4.83104277
495 4 0.0 11.79586854 6.40371987 21.5116938
496 4 0.0 21.5116938 19.57469301 24.96763197
497 4 0.0 4.83104277 6.76804356 24.96763197
498 4 0.0 4.83104277 19.57469301 1.3751046
499 4 0.0 21.5116938 6.76804356 1.3751046
500 4 0.0 11.79586854 21.5116938 6.40371987
501 4 0.0 11.79586854 4.83104277 19.9390167
502 4 0.0 14.54686803 4.83104277 6.40371987
503 4 0.0 14.54686803 21.5116938 19.9390167
504 4 0.0 19.57469301 11.79586854 8.33993037
505 4 0.0 6.76804356 11.79586854 18.0028062
506 4 0.0 19.57469301 14.54686803 18.0028062
507 4 0.0 6.76804356 14.54686803 8.33993037
508 4 0.0 19.57469301 21.5116938 1.3751046
509 4 0.0 6.76804356 4.83104277 1.3751046
510 4 0.0 19.57469301 4.83104277 24.96763197
511 4 0.0 6.76804356 21.5116938 24.96763197
512 4 0.0 21.5116938 11.79586854 19.9390167
513 4 0.0 4.83104277 11.79586854 6.40371987
514 4 0.0 4.83104277 14.54686803 19.9390167
515 4 0.0 21.5116938 14.54686803 6.40371987
516 4 0.0 11.79586854 19.57469301 18.0028062
517 4 0.0 11.79586854 6.76804356 8.33993037
518 4 0.0 14.54686803 19.57469301 8.33993037
519 4 0.0 14.54686803 6.76804356 18.0028062
520 4 0.0 4.83104277 6.76804356 1.3751046
521 4 0.0 21.5116938 19.57469301 1.3751046
522 4 0.0 21.5116938 6.76804356 24.96763197
523 4 0.0 4.83104277 19.57469301 24.96763197
524 4 0.0 14.54686803 4.83104277 19.9390167
525 4 0.0 14.54686803 21.5116938 6.40371987
526 4 0.0 11.79586854 21.5116938 19.9390167
527 4 0.0 11.79586854 4.83104277 6.40371987
528 4 0.0 6.76804356 14.54686803 18.0028062
529 4 0.0 19.57469301 14.54686803 8.33993037
530 4 0.0 6.76804356 11.79586854 8.33993037
531 4 0.0 19.57469301 11.79586854 18.0028062
532 4 0.0 6.76804356 4.83104277 24.96763197
533 4 0.0 19.57469301 21.5116938 24.96763197
534 4 0.0 6.76804356 21.5116938 1.3751046
535 4 0.0 19.57469301 4.83104277 1.3751046
536 4 0.0 4.83104277 14.54686803 6.40371987
537 4 0.0 21.5116938 14.54686803 19.9390167
538 4 0.0 21.5116938 11.79586854 6.40371987
539 4 0.0 4.83104277 11.79586854 19.9390167
540 4 0.0 14.54686803 6.76804356 8.33993037
541 4 0.0 14.54686803 19.57469301 18.0028062
542 4 0.0 11.79586854 6.76804356 18.0028062
543 4 0.0 11.79586854 19.57469301 8.33993037
544 1 0.0 44.20408086 21.653946 23.36571414
545 1 0.0 44.20408086 4.68879057 2.97702243
546 1 0.0 34.82491914 21.653946 2.97702243
547 1 0.0 29.319759 17.86134429 4.68879057
548 1 0.0 29.319759 8.48218257 21.653946
549 1 0.0 31.03231743 23.36571414 8.48218257
550 1 0.0 31.03231743 2.97702243 17.86134429
551 1 0.0 47.99668257 2.97702243 8.48218257
552 1 0.0 47.99668257 17.86134429 2.97702243
553 1 0.0 47.99668257 8.48218257 23.36571414
554 1 0.0 34.82491914 23.36571414 21.653946
555 1 0.0 44.20408086 23.36571414 4.68879057
556 1 0.0 34.82491914 2.97702243 4.68879057
557 1 0.0 49.709241 4.68879057 17.86134429
558 1 0.0 49.709241 21.653946 8.48218257
559 1 0.0 29.319759 4.68879057 8.48218257
560 1 0.0 29.319759 21.653946 17.86134429
561 1 0.0 44.20408086 21.653946 2.97702243
562 1 0.0 34.82491914 4.68879057 2.97702243
563 1 0.0 34.82491914 21.653946 23.36571414
564 1 0.0 49.709241 8.48218257 21.653946
565 1 0.0 49.709241 17.86134429 4.68879057
566 1 0.0 47.99668257 2.97702243 17.86134429
567 1 0.0 31.03231743 2.97702243 8.48218257
568 1 0.0 47.99668257 23.36571414 8.48218257
569 1 0.0 31.03231743 23.36571414 17.86134429
570 1 0.0 31.03231743 8.48218257 23.36571414
571 1 0.0 31.03231743 17.86134429 2.97702243
572 1 0.0 44.20408086 2.97702243 4.68879057
573 1 0.0 34.82491914 23.36571414 4.68879057
574 1 0.0 44.20408086 23.36571414 21.653946
575 1 0.0 29.319759 21.653946 8.48218257
576 1 0.0 29.319759 4.68879057 17.86134429
577 1 0.0 49.709241 4.68879057 8.48218257
578 1 0.0 34.82491914 17.86134429 10.194741
579 1 0.0 34.82491914 8.48218257 16.14799557
580 1 0.0 31.03231743 10.194741 21.653946
581 1 0.0 31.03231743 16.14799557 4.68879057
582 1 0.0 31.03231743 21.653946 16.14799557
583 1 0.0 47.99668257 4.68879057 16.14799557
584 1 0.0 31.03231743 4.68879057 10.194741
585 1 0.0 47.99668257 21.653946 10.194741
586 1 0.0 44.20408086 16.14799557 8.48218257
587 1 0.0 34.82491914 16.14799557 17.86134429
588 1 0.0 34.82491914 17.86134429 16.14799557
589 1 0.0 44.20408086 17.86134429 10.194741
590 1 0.0 47.99668257 16.14799557 4.68879057
591 1 0.0 47.99668257 10.194741 21.653946
592 1 0.0 47.99668257 4.68879057 10.194741
593 1 0.0 31.03231743 21.653946 10.194741
594 1 0.0 31.03231743 4.68879057 16.14799557
595 1 0.0 34.82491914 16.14799557 8.48218257
596 1 0.0 34.82491914 10.194741 17.86134429
597 1 0.0 36.53826786 8.48218257 17.86134429
598 1 0.0 36.53826786 17.86134429 8.48218257
599 1 0.0 36.53826786 4.68879057 4.68879057
600 1 0.0 36.53826786 21.653946 21.653946
601 1 0.0 42.49073214 21.653946 4.68879057
602 1 0.0 42.49073214 17.86134429 8.48218257
603 1 0.0 36.53826786 17.86134429 17.86134429
604 1 0.0 42.49073214 21.653946 21.653946
605 1 0.0 42.49073214 4.68879057 4.68879057
606 1 0.0 36.53826786 21.653946 4.68879057
607 1 0.0 34.16186583 5.35263417 24.53297247
608 1 0.0 44.86713417 20.9901024 24.53297247
609 1 0.0 44.86713417 5.35263417 1.8097641
610 1 0.0 34.16186583 20.9901024 1.8097641
611 1 0.0 50.87570904 7.81912926 5.35263417
612 1 0.0 50.87570904 18.5243976 20.9901024
613 1 0.0 28.15329096 18.5243976 5.35263417
614 1 0.0 28.15329096 7.81912926 20.9901024
615 1 0.0 31.69616103 24.53297247 7.81912926
616 1 0.0 47.33283897 24.53297247 18.5243976
617 1 0.0 31.69616103 1.8097641 18.5243976
618 1 0.0 47.33283897 1.8097641 7.81912926
619 1 0.0 31.69616103 7.81912926 1.8097641
620 1 0.0 47.33283897 18.5243976 1.8097641
621 1 0.0 31.69616103 18.5243976 24.53297247
622 1 0.0 47.33283897 7.81912926 24.53297247
623 1 0.0 34.16186583 24.53297247 20.9901024
624 1 0.0 44.86713417 24.53297247 5.35263417
625 1 0.0 44.86713417 1.8097641 20.9901024
626 1 0.0 34.16186583 1.8097641 5.35263417
627 1 0.0 50.87570904 5.35263417 18.5243976
628 1 0.0 50.87570904 20.9901024 7.81912926
629 1 0.0 28.15329096 5.35263417 7.81912926
630 1 0.0 28.15329096 20.9901024 18.5243976
631 1 0.0 44.86713417 20.9901024 1.8097641
632 1 0.0 34.16186583 5.35263417 1.8097641
633 1 0.0 34.16186583 20.9901024 24.53297247
634 1 0.0 44.86713417 5.35263417 24.53297247
635 1 0.0 28.15329096 18.5243976 20.9901024
636 1 0.0 28.15329096 7.81912926 5.35263417
637 1 0.0 50.87570904 7.81912926 20.9901024
638 1 0.0 50.87570904 18.5243976 5.35263417
639 1 0.0 47.33283897 1.8097641 18.5243976
640 1 0.0 31.69616103 1.8097641 7.81912926
641 1 0.0 47.33283897 24.53297247 7.81912926
642 1 0.0 31.69616103 24.53297247 18.5243976
643 1 0.0 47.33283897 18.5243976 24.53297247
644 1 0.0 31.69616103 7.81912926 24.53297247
645 1 0.0 47.33283897 7.81912926 1.8097641
646 1 0.0 31.69616103 18.5243976 1.8097641
647 1 0.0 44.86713417 1.8097641 5.35263417
648 1 0.0 34.16186583 1.8097641 20.9901024
649 1 0.0 34.16186583 24.53297247 5.35263417
650 1 0.0 44.86713417 24.53297247 20.9901024
651 1 0.0 28.15329096 20.9901024 7.81912926
652 1 0.0 28.15329096 5.35263417 18.5243976
653 1 0.0 50.87570904 20.9901024 18.5243976
654 1 0.0 50.87570904 5.35263417 7.81912926
655 1 0.0 34.16186583 18.5243976 11.36199933
656 1 0.0 44.86713417 7.81912926 11.36199933
657 1 0.0 44.86713417 18.5243976 14.98073724
658 1 0.0 34.16186583 7.81912926 14.98073724
659 1 0.0 31.69616103 11.36199933 20.9901024
660 1 0.0 47.33283897 11.36199933 5.35263417
661 1 0.0 31.69616103 14.98073724 5.35263417
662 1 0.0 47.33283897 14.98073724 20.9901024
663 1 0.0 31.69616103 20.9901024 14.98073724
664 1 0.0 47.33283897 5.35263417 14.98073724
665 1 0.0 31.69616103 5.35263417 11.36199933
666 1 0.0 47.33283897 20.9901024 11.36199933
667 1 0.0 34.16186583 11.36199933 7.81912926
668 1 0.0 44.86713417 11.36199933 18.5243976
669 1 0.0 44.86713417 14.98073724 7.81912926
670 1 0.0 34.16186583 14.98073724 18.5243976
671 1 0.0 44.86713417 7.81912926 14.98073724
672 1 0.0 34.16186583 18.5243976 14.98073724