# LAMMPS data file written by OVITO Basic 3.5.4
16458 atoms
4 atom types
0.0 79.029 xlo xhi
0.0 79.029 ylo yhi
0.0 79.029 zlo zhi
0.00000 0.00000 0.0000 xy xz yz

Masses

1 12.0107  # C
2 63.546  # Cu
3 1.00794  # H
4 15.9994  # O

Atoms  # charge

1 1 0.0 8.48218257 4.68879057 23.36571414
2 1 0.0 17.86134429 4.68879057 2.97702243
3 1 0.0 8.48218257 21.653946 2.97702243
4 1 0.0 23.36571414 8.48218257 4.68879057
5 1 0.0 2.97702243 17.86134429 4.68879057
6 1 0.0 2.97702243 8.48218257 21.653946
7 1 0.0 4.68879057 23.36571414 8.48218257
8 1 0.0 21.653946 23.36571414 17.86134429
9 1 0.0 4.68879057 2.97702243 17.86134429
10 1 0.0 21.653946 2.97702243 8.48218257
11 1 0.0 4.68879057 8.48218257 2.97702243
12 1 0.0 4.68879057 17.86134429 23.36571414
13 1 0.0 21.653946 8.48218257 23.36571414
14 1 0.0 8.48218257 23.36571414 21.653946
15 1 0.0 17.86134429 23.36571414 4.68879057
16 1 0.0 17.86134429 2.97702243 21.653946
17 1 0.0 8.48218257 2.97702243 4.68879057
18 1 0.0 23.36571414 4.68879057 17.86134429
19 1 0.0 23.36571414 21.653946 8.48218257
20 1 0.0 2.97702243 21.653946 17.86134429
21 1 0.0 17.86134429 21.653946 2.97702243
22 1 0.0 8.48218257 4.68879057 2.97702243
23 1 0.0 8.48218257 21.653946 23.36571414
24 1 0.0 17.86134429 4.68879057 23.36571414
25 1 0.0 2.97702243 17.86134429 21.653946
26 1 0.0 2.97702243 8.48218257 4.68879057
27 1 0.0 23.36571414 8.48218257 21.653946
28 1 0.0 21.653946 2.97702243 17.86134429
29 1 0.0 21.653946 23.36571414 8.48218257
30 1 0.0 4.68879057 23.36571414 17.86134429
31 1 0.0 4.68879057 8.48218257 23.36571414
32 1 0.0 21.653946 8.48218257 2.97702243
33 1 0.0 4.68879057 17.86134429 2.97702243
34 1 0.0 17.86134429 2.97702243 4.68879057
35 1 0.0 8.48218257 2.97702243 21.653946
36 1 0.0 8.48218257 23.36571414 4.68879057
37 1 0.0 2.97702243 21.653946 8.48218257
38 1 0.0 2.97702243 4.68879057 17.86134429
39 1 0.0 23.36571414 21.653946 17.86134429
40 1 0.0 23.36571414 4.68879057 8.48218257
41 1 0.0 8.48218257 17.86134429 10.194741
42 1 0.0 17.86134429 8.48218257 10.194741
43 1 0.0 17.86134429 17.86134429 16.14799557
44 1 0.0 8.48218257 8.48218257 16.14799557
45 1 0.0 4.68879057 10.194741 21.653946
46 1 0.0 21.653946 10.194741 4.68879057
47 1 0.0 4.68879057 16.14799557 4.68879057
48 1 0.0 4.68879057 21.653946 16.14799557
49 1 0.0 21.653946 4.68879057 16.14799557
50 1 0.0 21.653946 21.653946 10.194741
51 1 0.0 8.48218257 10.194741 8.48218257
52 1 0.0 17.86134429 16.14799557 8.48218257
53 1 0.0 8.48218257 16.14799557 17.86134429
54 1 0.0 8.48218257 17.86134429 16.14799557
55 1 0.0 8.48218257 8.48218257 10.194741
56 1 0.0 17.86134429 17.86134429 10.194741
57 1 0.0 4.68879057 16.14799557 21.653946
58 1 0.0 21.653946 10.194741 21.653946
59 1 0.0 4.68879057 10.194741 4.68879057
60 1 0.0 21.653946 4.68879057 10.194741
61 1 0.0 4.68879057 21.653946 10.194741
62 1 0.0 21.653946 21.653946 16.14799557
63 1 0.0 4.68879057 4.68879057 16.14799557
64 1 0.0 17.86134429 16.14799557 17.86134429
65 1 0.0 8.48218257 16.14799557 8.48218257
66 1 0.0 8.48218257 10.194741 17.86134429
67 1 0.0 17.86134429 10.194741 8.48218257
68 1 0.0 10.194741 8.48218257 17.86134429
69 1 0.0 10.194741 17.86134429 8.48218257
70 1 0.0 16.14799557 17.86134429 17.86134429
71 1 0.0 16.14799557 8.48218257 8.48218257
72 1 0.0 10.194741 4.68879057 4.68879057
73 1 0.0 10.194741 21.653946 21.653946
74 1 0.0 16.14799557 4.68879057 21.653946
75 1 0.0 16.14799557 21.653946 4.68879057
76 1 0.0 16.14799557 17.86134429 8.48218257
77 1 0.0 10.194741 8.48218257 8.48218257
78 1 0.0 10.194741 17.86134429 17.86134429
79 1 0.0 16.14799557 4.68879057 4.68879057
80 1 0.0 10.194741 21.653946 4.68879057
81 1 0.0 10.194741 4.68879057 21.653946
82 1 0.0 7.81912926 5.35263417 24.53297247
83 1 0.0 18.5243976 20.9901024 24.53297247
84 1 0.0 18.5243976 5.35263417 1.8097641
85 1 0.0 7.81912926 20.9901024 1.8097641
86 1 0.0 24.53297247 7.81912926 5.35263417
87 1 0.0 24.53297247 18.5243976 20.9901024
88 1 0.0 1.8097641 18.5243976 5.35263417
89 1 0.0 1.8097641 7.81912926 20.9901024
90 1 0.0 5.35263417 24.53297247 7.81912926
91 1 0.0 20.9901024 24.53297247 18.5243976
92 1 0.0 5.35263417 1.8097641 18.5243976
93 1 0.0 20.9901024 1.8097641 7.81912926
94 1 0.0 5.35263417 7.81912926 1.8097641
95 1 0.0 20.9901024 18.5243976 1.8097641
96 1 0.0 5.35263417 18.5243976 24.53297247
97 1 0.0 20.9901024 7.81912926 24.53297247
98 1 0.0 7.81912926 24.53297247 20.9901024
99 1 0.0 18.5243976 24.53297247 5.35263417
100 1 0.0 18.5243976 1.8097641 20.9901024
101 1 0.0 7.81912926 1.8097641 5.35263417
102 1 0.0 24.53297247 5.35263417 18.5243976
103 1 0.0 24.53297247 20.9901024 7.81912926
104 1 0.0 1.8097641 5.35263417 7.81912926
105 1 0.0 1.8097641 20.9901024 18.5243976
106 1 0.0 18.5243976 20.9901024 1.8097641
107 1 0.0 7.81912926 5.35263417 1.8097641
108 1 0.0 7.81912926 20.9901024 24.53297247
109 1 0.0 18.5243976 5.35263417 24.53297247
110 1 0.0 1.8097641 18.5243976 20.9901024
111 1 0.0 1.8097641 7.81912926 5.35263417
112 1 0.0 24.53297247 7.81912926 20.9901024
113 1 0.0 24.53297247 18.5243976 5.35263417
114 1 0.0 20.9901024 1.8097641 18.5243976
115 1 0.0 5.35263417 1.8097641 7.81912926
116 1 0.0 20.9901024 24.53297247 7.81912926
117 1 0.0 5.35263417 24.53297247 18.5243976
118 1 0.0 20.9901024 18.5243976 24.53297247
119 1 0.0 5.35263417 7.81912926 24.53297247
120 1 0.0 20.9901024 7.81912926 1.8097641
121 1 0.0 5.35263417 18.5243976 1.8097641
122 1 0.0 18.5243976 1.8097641 5.35263417
123 1 0.0 7.81912926 1.8097641 20.9901024
124 1 0.0 7.81912926 24.53297247 5.35263417
125 1 0.0 18.5243976 24.53297247 20.9901024
126 1 0.0 1.8097641 20.9901024 7.81912926
127 1 0.0 1.8097641 5.35263417 18.5243976
128 1 0.0 24.53297247 20.9901024 18.5243976
129 1 0.0 24.53297247 5.35263417 7.81912926
130 1 0.0 7.81912926 18.5243976 11.36199933
131 1 0.0 18.5243976 7.81912926 11.36199933
132 1 0.0 18.5243976 18.5243976 14.98073724
133 1 0.0 7.81912926 7.81912926 14.98073724
134 1 0.0 5.35263417 11.36199933 20.9901024
135 1 0.0 20.9901024 11.36199933 5.35263417
136 1 0.0 5.35263417 14.98073724 5.35263417
137 1 0.0 20.9901024 14.98073724 20.9901024
138 1 0.0 5.35263417 20.9901024 14.98073724
139 1 0.0 20.9901024 5.35263417 14.98073724
140 1 0.0 5.35263417 5.35263417 11.36199933
141 1 0.0 20.9901024 20.9901024 11.36199933
142 1 0.0 7.81912926 11.36199933 7.81912926
143 1 0.0 18.5243976 11.36199933 18.5243976
144 1 0.0 18.5243976 14.98073724 7.81912926
145 1 0.0 7.81912926 14.98073724 18.5243976
146 1 0.0 18.5243976 7.81912926 14.98073724
147 1 0.0 7.81912926 18.5243976 14.98073724
148 1 0.0 7.81912926 7.81912926 11.36199933
149 1 0.0 18.5243976 18.5243976 11.36199933
150 1 0.0 20.9901024 14.98073724 5.35263417
151 1 0.0 5.35263417 14.98073724 20.9901024
152 1 0.0 20.9901024 11.36199933 20.9901024
153 1 0.0 5.35263417 11.36199933 5.35263417
154 1 0.0 20.9901024 5.35263417 11.36199933
155 1 0.0 5.35263417 20.9901024 11.36199933
156 1 0.0 20.9901024 20.9901024 14.98073724
157 1 0.0 5.35263417 5.35263417 14.98073724
158 1 0.0 18.5243976 14.98073724 18.5243976
159 1 0.0 7.81912926 14.98073724 7.81912926
160 1 0.0 7.81912926 11.36199933 18.5243976
161 1 0.0 18.5243976 11.36199933 7.81912926
162 1 0.0 11.36199933 7.81912926 18.5243976
163 1 0.0 11.36199933 18.5243976 7.81912926
164 1 0.0 14.98073724 18.5243976 18.5243976
165 1 0.0 14.98073724 7.81912926 7.81912926
166 1 0.0 11.36199933 5.35263417 5.35263417
167 1 0.0 11.36199933 20.9901024 20.9901024
168 1 0.0 14.98073724 5.35263417 20.9901024
169 1 0.0 14.98073724 20.9901024 5.35263417
170 1 0.0 14.98073724 18.5243976 7.81912926
171 1 0.0 14.98073724 7.81912926 18.5243976
172 1 0.0 11.36199933 7.81912926 7.81912926
173 1 0.0 11.36199933 18.5243976 18.5243976
174 1 0.0 14.98073724 20.9901024 20.9901024
175 1 0.0 14.98073724 5.35263417 5.35263417
176 1 0.0 11.36199933 20.9901024 5.35263417
177 1 0.0 11.36199933 5.35263417 20.9901024
178 1 0.0 9.62810307 5.25305763 22.7998665
179 1 0.0 16.7146335 5.25305763 3.54287007
180 1 0.0 9.62810307 21.08967894 3.54287007
181 1 0.0 22.7998665 9.62810307 5.25305763
182 1 0.0 3.54287007 16.7146335 5.25305763
183 1 0.0 3.54287007 9.62810307 21.08967894
184 1 0.0 5.25305763 22.7998665 9.62810307
185 1 0.0 21.08967894 22.7998665 16.7146335
186 1 0.0 5.25305763 3.54287007 16.7146335
187 1 0.0 21.08967894 3.54287007 9.62810307
188 1 0.0 5.25305763 9.62810307 3.54287007
189 1 0.0 5.25305763 16.7146335 22.7998665
190 1 0.0 21.08967894 9.62810307 22.7998665
191 1 0.0 9.62810307 22.7998665 21.08967894
192 1 0.0 16.7146335 22.7998665 5.25305763
193 1 0.0 16.7146335 3.54287007 21.08967894
194 1 0.0 9.62810307 3.54287007 5.25305763
195 1 0.0 22.7998665 5.25305763 16.7146335
196 1 0.0 22.7998665 21.08967894 9.62810307
197 1 0.0 3.54287007 21.08967894 16.7146335
198 1 0.0 16.7146335 21.08967894 3.54287007
199 1 0.0 9.62810307 5.25305763 3.54287007
200 1 0.0 9.62810307 21.08967894 22.7998665
201 1 0.0 16.7146335 5.25305763 22.7998665
202 1 0.0 3.54287007 16.7146335 21.08967894
203 1 0.0 3.54287007 9.62810307 5.25305763
204 1 0.0 22.7998665 9.62810307 21.08967894
205 1 0.0 21.08967894 3.54287007 16.7146335
206 1 0.0 21.08967894 22.7998665 9.62810307
207 1 0.0 5.25305763 22.7998665 16.7146335
208 1 0.0 5.25305763 9.62810307 22.7998665
209 1 0.0 21.08967894 9.62810307 3.54287007
210 1 0.0 5.25305763 16.7146335 3.54287007
211 1 0.0 16.7146335 3.54287007 5.25305763
212 1 0.0 9.62810307 3.54287007 21.08967894
213 1 0.0 9.62810307 22.7998665 5.25305763
214 1 0.0 3.54287007 21.08967894 9.62810307
215 1 0.0 3.54287007 5.25305763 16.7146335
216 1 0.0 22.7998665 21.08967894 16.7146335
217 1 0.0 22.7998665 5.25305763 9.62810307
218 1 0.0 9.62810307 18.42403077 9.62810307
219 1 0.0 16.7146335 7.9187058 9.62810307
220 1 0.0 16.7146335 18.42403077 16.7146335
221 1 0.0 9.62810307 7.9187058 16.7146335
222 1 0.0 22.7998665 22.7998665 18.42403077
223 1 0.0 22.7998665 3.54287007 7.9187058
224 1 0.0 3.54287007 3.54287007 18.42403077
225 1 0.0 3.54287007 22.7998665 7.9187058
226 1 0.0 9.62810307 9.62810307 7.9187058
227 1 0.0 16.7146335 16.7146335 7.9187058
228 1 0.0 9.62810307 16.7146335 18.42403077
229 1 0.0 22.7998665 7.9187058 22.7998665
230 1 0.0 3.54287007 18.42403077 22.7998665
231 1 0.0 3.54287007 7.9187058 3.54287007
232 1 0.0 9.62810307 18.42403077 16.7146335
233 1 0.0 9.62810307 7.9187058 9.62810307
234 1 0.0 16.7146335 18.42403077 9.62810307
235 1 0.0 3.54287007 22.7998665 18.42403077
236 1 0.0 22.7998665 22.7998665 7.9187058
237 1 0.0 22.7998665 3.54287007 18.42403077
238 1 0.0 16.7146335 16.7146335 18.42403077
239 1 0.0 9.62810307 16.7146335 7.9187058
240 1 0.0 9.62810307 9.62810307 18.42403077
241 1 0.0 16.7146335 9.62810307 7.9187058
242 1 0.0 3.54287007 7.9187058 22.7998665
243 1 0.0 3.54287007 18.42403077 3.54287007
244 1 0.0 22.7998665 7.9187058 3.54287007
245 1 0.0 7.9187058 22.7998665 3.54287007
246 1 0.0 18.42403077 3.54287007 3.54287007
247 1 0.0 7.9187058 3.54287007 22.7998665
248 1 0.0 7.9187058 16.7146335 16.7146335
249 1 0.0 18.42403077 16.7146335 9.62810307
250 1 0.0 7.9187058 9.62810307 9.62810307
251 1 0.0 7.9187058 3.54287007 3.54287007
252 1 0.0 18.42403077 3.54287007 22.7998665
253 1 0.0 7.9187058 22.7998665 22.7998665
254 1 0.0 18.42403077 22.7998665 3.54287007
255 1 0.0 7.9187058 16.7146335 9.62810307
256 1 0.0 18.42403077 9.62810307 9.62810307
257 1 0.0 7.9187058 9.62810307 16.7146335
258 1 0.0 18.42403077 16.7146335 16.7146335
259 2 0.0 7.5156579 7.5156579 0.0
260 2 0.0 18.82707867 18.82707867 0.0
261 2 0.0 18.82707867 7.5156579 0.0
262 2 0.0 7.5156579 18.82707867 0.0
263 2 0.0 0.0 7.5156579 7.5156579
264 2 0.0 0.0 18.82707867 18.82707867
265 2 0.0 0.0 18.82707867 7.5156579
266 2 0.0 0.0 7.5156579 18.82707867
267 2 0.0 7.5156579 0.0 7.5156579
268 2 0.0 18.82707867 0.0 18.82707867
269 2 0.0 7.5156579 0.0 18.82707867
270 2 0.0 18.82707867 0.0 7.5156579
271 2 0.0 7.5156579 20.68663104 13.17176343
272 2 0.0 18.82707867 5.65610553 13.17176343
273 2 0.0 18.82707867 20.68663104 13.17176343
274 2 0.0 7.5156579 5.65610553 13.17176343
275 2 0.0 0.0 20.68663104 20.68663104
276 2 0.0 0.0 5.65610553 5.65610553
277 2 0.0 0.0 5.65610553 20.68663104
278 2 0.0 0.0 20.68663104 5.65610553
279 2 0.0 7.5156579 13.17176343 20.68663104
280 2 0.0 18.82707867 13.17176343 5.65610553
281 2 0.0 7.5156579 13.17176343 5.65610553
282 2 0.0 18.82707867 13.17176343 20.68663104
283 2 0.0 20.68663104 7.5156579 13.17176343
284 2 0.0 5.65610553 18.82707867 13.17176343
285 2 0.0 5.65610553 7.5156579 13.17176343
286 2 0.0 20.68663104 18.82707867 13.17176343
287 2 0.0 13.17176343 7.5156579 20.68663104
288 2 0.0 13.17176343 18.82707867 5.65610553
289 2 0.0 13.17176343 18.82707867 20.68663104
290 2 0.0 13.17176343 7.5156579 5.65610553
291 2 0.0 20.68663104 0.0 20.68663104
292 2 0.0 5.65610553 0.0 5.65610553
293 2 0.0 20.68663104 0.0 5.65610553
294 2 0.0 5.65610553 0.0 20.68663104
295 2 0.0 20.68663104 20.68663104 0.0
296 2 0.0 5.65610553 5.65610553 0.0
297 2 0.0 5.65610553 20.68663104 0.0
298 2 0.0 20.68663104 5.65610553 0.0
299 2 0.0 13.17176343 20.68663104 7.5156579
300 2 0.0 13.17176343 5.65610553 18.82707867
301 2 0.0 13.17176343 5.65610553 7.5156579
302 2 0.0 13.17176343 20.68663104 18.82707867
303 2 0.0 20.68663104 13.17176343 7.5156579
304 2 0.0 5.65610553 13.17176343 18.82707867
305 2 0.0 20.68663104 13.17176343 18.82707867
306 2 0.0 5.65610553 13.17176343 7.5156579
307 3 0.0 10.01613546 6.006204 23.1871086
308 3 0.0 16.3273914 6.006204 3.15562797
309 3 0.0 10.01613546 20.33732286 3.15562797
310 3 0.0 23.1871086 10.01613546 6.006204
311 3 0.0 3.15562797 16.3273914 6.006204
312 3 0.0 3.15562797 10.01613546 20.33732286
313 3 0.0 6.006204 23.1871086 10.01613546
314 3 0.0 20.33732286 23.1871086 16.3273914
315 3 0.0 6.006204 3.15562797 16.3273914
316 3 0.0 20.33732286 3.15562797 10.01613546
317 3 0.0 6.006204 10.01613546 3.15562797
318 3 0.0 6.006204 16.3273914 23.1871086
319 3 0.0 20.33732286 10.01613546 23.1871086
320 3 0.0 10.01613546 23.1871086 20.33732286
321 3 0.0 16.3273914 23.1871086 6.006204
322 3 0.0 16.3273914 3.15562797 20.33732286
323 3 0.0 10.01613546 3.15562797 6.006204
324 3 0.0 23.1871086 6.006204 16.3273914
325 3 0.0 23.1871086 20.33732286 10.01613546
326 3 0.0 3.15562797 20.33732286 16.3273914
327 3 0.0 16.3273914 20.33732286 3.15562797
328 3 0.0 10.01613546 6.006204 3.15562797
329 3 0.0 10.01613546 20.33732286 23.1871086
330 3 0.0 16.3273914 6.006204 23.1871086
331 3 0.0 3.15562797 16.3273914 20.33732286
332 3 0.0 3.15562797 10.01613546 6.006204
333 3 0.0 23.1871086 10.01613546 20.33732286
334 3 0.0 20.33732286 3.15562797 16.3273914
335 3 0.0 20.33732286 23.1871086 10.01613546
336 3 0.0 6.006204 23.1871086 16.3273914
337 3 0.0 6.006204 10.01613546 23.1871086
338 3 0.0 20.33732286 10.01613546 3.15562797
339 3 0.0 6.006204 16.3273914 3.15562797
340 3 0.0 16.3273914 3.15562797 6.006204
341 3 0.0 10.01613546 3.15562797 20.33732286
342 3 0.0 10.01613546 23.1871086 6.006204
343 3 0.0 3.15562797 20.33732286 10.01613546
344 3 0.0 3.15562797 6.006204 16.3273914
345 3 0.0 23.1871086 20.33732286 16.3273914
346 3 0.0 23.1871086 6.006204 10.01613546
347 3 0.0 10.01613546 19.17796743 10.01613546
348 3 0.0 16.3273914 7.16476914 10.01613546
349 3 0.0 16.3273914 19.17796743 16.3273914
350 3 0.0 10.01613546 7.16476914 16.3273914
351 3 0.0 23.1871086 23.1871086 19.17796743
352 3 0.0 23.1871086 3.15562797 7.16476914
353 3 0.0 3.15562797 3.15562797 19.17796743
354 3 0.0 3.15562797 23.1871086 7.16476914
355 3 0.0 10.01613546 10.01613546 7.16476914
356 3 0.0 16.3273914 16.3273914 7.16476914
357 3 0.0 10.01613546 16.3273914 19.17796743
358 3 0.0 23.1871086 7.16476914 23.1871086
359 3 0.0 3.15562797 19.17796743 23.1871086
360 3 0.0 3.15562797 7.16476914 3.15562797
361 3 0.0 10.01613546 19.17796743 16.3273914
362 3 0.0 10.01613546 7.16476914 10.01613546
363 3 0.0 16.3273914 19.17796743 10.01613546
364 3 0.0 3.15562797 23.1871086 19.17796743
365 3 0.0 23.1871086 23.1871086 7.16476914
366 3 0.0 23.1871086 3.15562797 19.17796743
367 3 0.0 16.3273914 16.3273914 19.17796743
368 3 0.0 10.01613546 16.3273914 7.16476914
369 3 0.0 10.01613546 10.01613546 19.17796743
370 3 0.0 16.3273914 10.01613546 7.16476914
371 3 0.0 3.15562797 7.16476914 23.1871086
372 3 0.0 3.15562797 19.17796743 3.15562797
373 3 0.0 23.1871086 7.16476914 3.15562797
374 3 0.0 7.16476914 23.1871086 3.15562797
375 3 0.0 19.17796743 3.15562797 3.15562797
376 3 0.0 7.16476914 3.15562797 23.1871086
377 3 0.0 7.16476914 16.3273914 16.3273914
378 3 0.0 19.17796743 16.3273914 10.01613546
379 3 0.0 7.16476914 10.01613546 10.01613546
380 3 0.0 7.16476914 3.15562797 3.15562797
381 3 0.0 19.17796743 3.15562797 23.1871086
382 3 0.0 7.16476914 23.1871086 23.1871086
383 3 0.0 19.17796743 23.1871086 3.15562797
384 3 0.0 7.16476914 16.3273914 10.01613546
385 3 0.0 19.17796743 10.01613546 10.01613546
386 3 0.0 7.16476914 10.01613546 16.3273914
387 3 0.0 19.17796743 16.3273914 16.3273914
388 4 0.0 8.33993037 6.40371987 24.96763197
389 4 0.0 18.0028062 19.9390167 24.96763197
390 4 0.0 18.0028062 6.40371987 1.3751046
391 4 0.0 8.33993037 19.9390167 1.3751046
392 4 0.0 24.96763197 8.33993037 6.40371987
393 4 0.0 24.96763197 18.0028062 19.9390167
394 4 0.0 1.3751046 18.0028062 6.40371987
395 4 0.0 1.3751046 8.33993037 19.9390167
396 4 0.0 6.40371987 24.96763197 8.33993037
397 4 0.0 19.9390167 24.96763197 18.0028062
398 4 0.0 6.40371987 1.3751046 18.0028062
399 4 0.0 19.9390167 1.3751046 8.33993037
400 4 0.0 6.40371987 8.33993037 1.3751046
401 4 0.0 19.9390167 18.0028062 1.3751046
402 4 0.0 6.40371987 18.0028062 24.96763197
403 4 0.0 19.9390167 8.33993037 24.96763197
404 4 0.0 8.33993037 24.96763197 19.9390167
405 4 0.0 18.0028062 24.96763197 6.40371987
406 4 0.0 18.0028062 1.3751046 19.9390167
407 4 0.0 8.33993037 1.3751046 6.40371987
408 4 0.0 24.96763197 6.40371987 18.0028062
409 4 0.0 24.96763197 19.9390167 8.33993037
410 4 0.0 1.3751046 6.40371987 8.33993037
411 4 0.0 1.3751046 19.9390167 18.0028062
412 4 0.0 18.0028062 19.9390167 1.3751046
413 4 0.0 8.33993037 6.40371987 1.3751046
414 4 0.0 8.33993037 19.9390167 24.96763197
415 4 0.0 18.0028062 6.40371987 24.96763197
416 4 0.0 1.3751046 18.0028062 19.9390167
417 4 0.0 1.3751046 8.33993037 6.40371987
418 4 0.0 24.96763197 8.33993037 19.9390167
419 4 0.0 24.96763197 18.0028062 6.40371987
420 4 0.0 19.9390167 1.3751046 18.0028062
421 4 0.0 6.40371987 1.3751046 8.33993037
422 4 0.0 19.9390167 24.96763197 8.33993037
423 4 0.0 6.40371987 24.96763197 18.0028062
424 4 0.0 19.9390167 18.0028062 24.96763197
425 4 0.0 6.40371987 8.33993037 24.96763197
426 4 0.0 19.9390167 8.33993037 1.3751046
427 4 0.0 6.40371987 18.0028062 1.3751046
428 4 0.0 18.0028062 1.3751046 6.40371987
429 4 0.0 8.33993037 1.3751046 19.9390167
430 4 0.0 8.33993037 24.96763197 6.40371987
431 4 0.0 18.0028062 24.96763197 19.9390167
432 4 0.0 1.3751046 19.9390167 8.33993037
433 4 0.0 1.3751046 6.40371987 18.0028062
434 4 0.0 24.96763197 19.9390167 18.0028062
435 4 0.0 24.96763197 6.40371987 8.33993037
436 4 0.0 8.33993037 19.57469301 11.79586854
437 4 0.0 18.0028062 6.76804356 11.79586854
438 4 0.0 18.0028062 19.57469301 14.54686803
439 4 0.0 8.33993037 6.76804356 14.54686803
440 4 0.0 24.96763197 21.5116938 19.57469301
441 4 0.0 24.96763197 4.83104277 6.76804356
442 4 0.0 1.3751046 4.83104277 19.57469301
443 4 0.0 1.3751046 21.5116938 6.76804356
444 4 0.0 6.40371987 11.79586854 21.5116938
445 4 0.0 19.9390167 11.79586854 4.83104277
446 4 0.0 6.40371987 14.54686803 4.83104277
447 4 0.0 19.9390167 14.54686803 21.5116938
448 4 0.0 6.40371987 21.5116938 14.54686803
449 4 0.0 19.9390167 4.83104277 14.54686803
450 4 0.0 6.40371987 4.83104277 11.79586854
451 4 0.0 19.9390167 21.5116938 11.79586854
452 4 0.0 8.33993037 11.79586854 6.76804356
453 4 0.0 18.0028062 11.79586854 19.57469301
454 4 0.0 18.0028062 14.54686803 6.76804356
455 4 0.0 8.33993037 14.54686803 19.57469301
456 4 0.0 24.96763197 19.57469301 4.83104277
457 4 0.0 24.96763197 6.76804356 21.5116938
458 4 0.0 1.3751046 19.57469301 21.5116938
459 4 0.0 1.3751046 6.76804356 4.83104277
460 4 0.0 18.0028062 6.76804356 14.54686803
461 4 0.0 8.33993037 19.57469301 14.54686803
462 4 0.0 8.33993037 6.76804356 11.79586854
463 4 0.0 18.0028062 19.57469301 11.79586854
464 4 0.0 1.3751046 4.83104277 6.76804356
465 4 0.0 1.3751046 21.5116938 19.57469301
466 4 0.0 24.96763197 21.5116938 6.76804356
467 4 0.0 24.96763197 4.83104277 19.57469301
468 4 0.0 19.9390167 14.54686803 4.83104277
469 4 0.0 6.40371987 14.54686803 21.5116938
470 4 0.0 19.9390167 11.79586854 21.5116938
471 4 0.0 6.40371987 11.79586854 4.83104277
472 4 0.0 19.9390167 4.83104277 11.79586854
473 4 0.0 6.40371987 21.5116938 11.79586854
474 4 0.0 19.9390167 21.5116938 14.54686803
475 4 0.0 6.40371987 4.83104277 14.54686803
476 4 0.0 18.0028062 14.54686803 19.57469301
477 4 0.0 8.33993037 14.54686803 6.76804356
478 4 0.0 8.33993037 11.79586854 19.57469301
479 4 0.0 18.0028062 11.79586854 6.76804356
480 4 0.0 1.3751046 6.76804356 21.5116938
481 4 0.0 1.3751046 19.57469301 4.83104277
482 4 0.0 24.96763197 6.76804356 4.83104277
483 4 0.0 24.96763197 19.57469301 21.5116938
484 4 0.0 21.5116938 6.40371987 11.79586854
485 4 0.0 4.83104277 19.9390167 11.79586854
486 4 0.0 4.83104277 6.40371987 14.54686803
487 4 0.0 21.5116938 19.9390167 14.54686803
488 4 0.0 11.79586854 8.33993037 19.57469301
489 4 0.0 11.79586854 18.0028062 6.76804356
490 4 0.0 14.54686803 18.0028062 19.57469301
491 4 0.0 14.54686803 8.33993037 6.76804356
492 4 0.0 19.57469301 24.96763197 21.5116938
493 4 0.0 6.76804356 24.96763197 4.83104277
494 4 0.0 19.57469301 1.3751046 4.83104277
495 4 0.0 6.76804356 1.3751046 21.5116938
496 4 0.0 19.57469301 8.33993037 14.54686803
497 4 0.0 6.76804356 18.0028062 14.54686803
498 4 0.0 19.57469301 18.0028062 11.79586854
499 4 0.0 6.76804356 8.33993037 11.79586854
500 4 0.0 21.5116938 24.96763197 6.76804356
501 4 0.0 4.83104277 24.96763197 19.57469301
502 4 0.0 4.83104277 1.3751046 6.76804356
503 4 0.0 21.5116938 1.3751046 19.57469301
504 4 0.0 11.79586854 6.40371987 4.83104277
505 4 0.0 11.79586854 19.9390167 21.5116938
506 4 0.0 14.54686803 6.40371987 21.5116938
507 4 0.0 14.54686803 19.9390167 4.83104277
508 4 0.0 4.83104277 19.9390167 14.54686803
509 4 0.0 21.5116938 6.40371987 14.54686803
510 4 0.0 21.5116938 19.9390167 11.79586854
511 4 0.0 4.83104277 6.40371987 11.79586854
512 4 0.0 14.54686803 18.0028062 6.76804356
513 4 0.0 14.54686803 8.33993037 19.57469301
514 4 0.0 11.79586854 8.33993037 6.76804356
515 4 0.0 11.79586854 18.0028062 19.57469301
516 4 0.0 6.76804356 1.3751046 4.83104277
517 4 0.0 19.57469301 1.3751046 21.5116938
518 4 0.0 6.76804356 24.96763197 21.5116938
519 4 0.0 19.57469301 24.96763197 4.83104277
520 4 0.0 6.76804356 18.0028062 11.79586854
521 4 0.0 19.57469301 8.33993037 11.79586854
522 4 0.0 6.76804356 8.33993037 14.54686803
523 4 0.0 19.57469301 18.0028062 14.54686803
524 4 0.0 4.83104277 1.3751046 19.57469301
525 4 0.0 21.5116938 1.3751046 6.76804356
526 4 0.0 21.5116938 24.96763197 19.57469301
527 4 0.0 4.83104277 24.96763197 6.76804356
528 4 0.0 14.54686803 19.9390167 21.5116938
529 4 0.0 14.54686803 6.40371987 4.83104277
530 4 0.0 11.79586854 19.9390167 4.83104277
531 4 0.0 11.79586854 6.40371987 21.5116938
532 4 0.0 21.5116938 19.57469301 24.96763197
533 4 0.0 4.83104277 6.76804356 24.96763197
534 4 0.0 4.83104277 19.57469301 1.3751046
535 4 0.0 21.5116938 6.76804356 1.3751046
536 4 0.0 11.79586854 21.5116938 6.40371987
537 4 0.0 11.79586854 4.83104277 19.9390167
538 4 0.0 14.54686803 4.83104277 6.40371987
539 4 0.0 14.54686803 21.5116938 19.9390167
540 4 0.0 19.57469301 11.79586854 8.33993037
541 4 0.0 6.76804356 11.79586854 18.0028062
542 4 0.0 19.57469301 14.54686803 18.0028062
543 4 0.0 6.76804356 14.54686803 8.33993037
544 4 0.0 19.57469301 21.5116938 1.3751046
545 4 0.0 6.76804356 4.83104277 1.3751046
546 4 0.0 19.57469301 4.83104277 24.96763197
547 4 0.0 6.76804356 21.5116938 24.96763197
548 4 0.0 21.5116938 11.79586854 19.9390167
549 4 0.0 4.83104277 11.79586854 6.40371987
550 4 0.0 4.83104277 14.54686803 19.9390167
551 4 0.0 21.5116938 14.54686803 6.40371987
552 4 0.0 11.79586854 19.57469301 18.0028062
553 4 0.0 11.79586854 6.76804356 8.33993037
554 4 0.0 14.54686803 19.57469301 8.33993037
555 4 0.0 14.54686803 6.76804356 18.0028062
556 4 0.0 4.83104277 6.76804356 1.3751046
557 4 0.0 21.5116938 19.57469301 1.3751046
558 4 0.0 21.5116938 6.76804356 24.96763197
559 4 0.0 4.83104277 19.57469301 24.96763197
560 4 0.0 14.54686803 4.83104277 19.9390167
561 4 0.0 14.54686803 21.5116938 6.40371987
562 4 0.0 11.79586854 21.5116938 19.9390167
563 4 0.0 11.79586854 4.83104277 6.40371987
564 4 0.0 6.76804356 14.54686803 18.0028062
565 4 0.0 19.57469301 14.54686803 8.33993037
566 4 0.0 6.76804356 11.79586854 8.33993037
567 4 0.0 19.57469301 11.79586854 18.0028062
568 4 0.0 6.76804356 4.83104277 24.96763197
569 4 0.0 19.57469301 21.5116938 24.96763197
570 4 0.0 6.76804356 21.5116938 1.3751046
571 4 0.0 19.57469301 4.83104277 1.3751046
572 4 0.0 4.83104277 14.54686803 6.40371987
573 4 0.0 21.5116938 14.54686803 19.9390167
574 4 0.0 21.5116938 11.79586854 6.40371987
575 4 0.0 4.83104277 11.79586854 19.9390167
576 4 0.0 14.54686803 6.76804356 8.33993037
577 4 0.0 14.54686803 19.57469301 18.0028062
578 4 0.0 11.79586854 6.76804356 18.0028062
579 4 0.0 11.79586854 19.57469301 8.33993037
580 1 0.0 34.82491914 4.68879057 23.36571414
581 1 0.0 44.20408086 21.653946 23.36571414
582 1 0.0 44.20408086 4.68879057 2.97702243
583 1 0.0 34.82491914 21.653946 2.97702243
584 1 0.0 49.709241 8.48218257 4.68879057
585 1 0.0 49.709241 17.86134429 21.653946
586 1 0.0 29.319759 17.86134429 4.68879057
587 1 0.0 29.319759 8.48218257 21.653946
588 1 0.0 31.03231743 23.36571414 8.48218257
589 1 0.0 47.99668257 23.36571414 17.86134429
590 1 0.0 31.03231743 2.97702243 17.86134429
591 1 0.0 47.99668257 2.97702243 8.48218257
592 1 0.0 31.03231743 8.48218257 2.97702243
593 1 0.0 47.99668257 17.86134429 2.97702243
594 1 0.0 31.03231743 17.86134429 23.36571414
595 1 0.0 47.99668257 8.48218257 23.36571414
596 1 0.0 34.82491914 23.36571414 21.653946
597 1 0.0 44.20408086 23.36571414 4.68879057
598 1 0.0 44.20408086 2.97702243 21.653946
599 1 0.0 34.82491914 2.97702243 4.68879057
600 1 0.0 49.709241 4.68879057 17.86134429
601 1 0.0 29.319759 4.68879057 8.48218257
602 1 0.0 29.319759 21.653946 17.86134429
603 1 0.0 44.20408086 21.653946 2.97702243
604 1 0.0 34.82491914 4.68879057 2.97702243
605 1 0.0 34.82491914 21.653946 23.36571414
606 1 0.0 44.20408086 4.68879057 23.36571414
607 1 0.0 29.319759 17.86134429 21.653946
608 1 0.0 29.319759 8.48218257 4.68879057
609 1 0.0 49.709241 8.48218257 21.653946
610 1 0.0 49.709241 17.86134429 4.68879057
611 1 0.0 47.99668257 2.97702243 17.86134429
612 1 0.0 31.03231743 2.97702243 8.48218257
613 1 0.0 31.03231743 23.36571414 17.86134429
614 1 0.0 47.99668257 17.86134429 23.36571414
615 1 0.0 31.03231743 8.48218257 23.36571414
616 1 0.0 47.99668257 8.48218257 2.97702243
617 1 0.0 31.03231743 17.86134429 2.97702243
618 1 0.0 44.20408086 2.97702243 4.68879057
619 1 0.0 34.82491914 2.97702243 21.653946
620 1 0.0 34.82491914 23.36571414 4.68879057
621 1 0.0 44.20408086 23.36571414 21.653946
622 1 0.0 29.319759 21.653946 8.48218257
623 1 0.0 29.319759 4.68879057 17.86134429
624 1 0.0 49.709241 21.653946 17.86134429
625 1 0.0 49.709241 4.68879057 8.48218257
626 1 0.0 34.82491914 17.86134429 10.194741
627 1 0.0 44.20408086 8.48218257 10.194741
628 1 0.0 44.20408086 17.86134429 16.14799557
629 1 0.0 34.82491914 8.48218257 16.14799557
630 1 0.0 31.03231743 10.194741 21.653946
631 1 0.0 47.99668257 10.194741 4.68879057
632 1 0.0 31.03231743 16.14799557 4.68879057
633 1 0.0 47.99668257 16.14799557 21.653946
634 1 0.0 31.03231743 21.653946 16.14799557
635 1 0.0 47.99668257 4.68879057 16.14799557
636 1 0.0 31.03231743 4.68879057 10.194741
637 1 0.0 34.82491914 10.194741 8.48218257
638 1 0.0 44.20408086 10.194741 17.86134429
639 1 0.0 44.20408086 16.14799557 8.48218257
640 1 0.0 34.82491914 16.14799557 17.86134429
641 1 0.0 44.20408086 8.48218257 16.14799557
642 1 0.0 34.82491914 17.86134429 16.14799557
643 1 0.0 34.82491914 8.48218257 10.194741
644 1 0.0 44.20408086 17.86134429 10.194741
645 1 0.0 47.99668257 16.14799557 4.68879057
646 1 0.0 31.03231743 16.14799557 21.653946
647 1 0.0 47.99668257 10.194741 21.653946
648 1 0.0 31.03231743 10.194741 4.68879057
649 1 0.0 47.99668257 4.68879057 10.194741
650 1 0.0 31.03231743 21.653946 10.194741
651 1 0.0 47.99668257 21.653946 16.14799557
652 1 0.0 31.03231743 4.68879057 16.14799557
653 1 0.0 44.20408086 16.14799557 17.86134429
654 1 0.0 34.82491914 16.14799557 8.48218257
655 1 0.0 34.82491914 10.194741 17.86134429
656 1 0.0 44.20408086 10.194741 8.48218257
657 1 0.0 36.53826786 8.48218257 17.86134429
658 1 0.0 36.53826786 17.86134429 8.48218257
659 1 0.0 42.49073214 17.86134429 17.86134429
660 1 0.0 42.49073214 8.48218257 8.48218257
661 1 0.0 36.53826786 4.68879057 4.68879057
662 1 0.0 36.53826786 21.653946 21.653946
663 1 0.0 42.49073214 4.68879057 21.653946
664 1 0.0 42.49073214 21.653946 4.68879057
665 1 0.0 42.49073214 17.86134429 8.48218257
666 1 0.0 42.49073214 8.48218257 17.86134429
667 1 0.0 36.53826786 8.48218257 8.48218257
668 1 0.0 36.53826786 17.86134429 17.86134429
669 1 0.0 42.49073214 21.653946 21.653946
670 1 0.0 42.49073214 4.68879057 4.68879057
671 1 0.0 36.53826786 21.653946 4.68879057
672 1 0.0 36.53826786 4.68879057 21.653946
673 1 0.0 34.16186583 5.35263417 24.53297247